<?xml version="1.0" encoding="ISO-8859-1"?>
<modeling>
 <generator>
  <i name="program" type="string">vasp </i>
  <i name="version" type="string">5.4.1  </i>
  <i name="subversion" type="string">24Jun15 (build Jan 18 2016 15:29:17) complex                          parallel </i>
  <i name="platform" type="string">IFC91_ompi </i>
  <i name="date" type="string">2017 09 12 </i>
  <i name="time" type="string">04:48:52 </i>
 </generator>
 <incar>
  <i type="string" name="PREC">accurate</i>
  <i type="string" name="ALGO"> Normal</i>
  <i type="int" name="ISPIN">     1</i>
  <i type="int" name="ICHARG">     0</i>
  <i type="int" name="NELM">   100</i>
  <i type="int" name="IBRION">    -1</i>
  <i name="EDIFF">      0.00040000</i>
  <i type="int" name="NSW">     0</i>
  <i type="int" name="ISIF">     3</i>
  <i name="ENCUT">    520.00000000</i>
  <v name="MAGMOM">      0.60000000      0.60000000      0.60000000      0.60000000      0.60000000      0.60000000      0.60000000      0.60000000</v>
  <i type="string" name="LREAL"> Auto</i>
  <i type="int" name="ISMEAR">     1</i>
  <i name="SIGMA">      0.05000000</i>
  <i type="logical" name="LWAVE"> T  </i>
  <i type="logical" name="LCHARG"> T  </i>
  <i type="logical" name="LVHAR"> F  </i>
  <i type="logical" name="LORBIT"> F  </i>
  <i type="logical" name="LELF"> T  </i>
  <i type="logical" name="LAECHG"> F  </i>
  <v type="int" name="KPOINT_BSE">    -1     0     0     0</v>
  <i type="int" name="NELM">   100</i>
 </incar>
 <kpoints>
  <generation param="Monkhorst-Pack">
   <v type="int" name="divisions">       8        6        4 </v>
   <v name="usershift">      0.00000000       0.00000000       0.00000000 </v>
   <v name="genvec1">      0.12500000       0.00000000       0.00000000 </v>
   <v name="genvec2">      0.00000000       0.16666667       0.00000000 </v>
   <v name="genvec3">      0.00000000       0.00000000       0.25000000 </v>
   <v name="shift">      0.50000000       0.50000000       0.50000000 </v>
  </generation>
  <varray name="kpointlist" >
   <v>       0.06250000       0.08333333       0.12500000 </v>
   <v>       0.18750000       0.08333333       0.12500000 </v>
   <v>       0.31250000       0.08333333       0.12500000 </v>
   <v>       0.43750000       0.08333333       0.12500000 </v>
   <v>       0.06250000       0.25000000       0.12500000 </v>
   <v>       0.18750000       0.25000000       0.12500000 </v>
   <v>       0.31250000       0.25000000       0.12500000 </v>
   <v>       0.43750000       0.25000000       0.12500000 </v>
   <v>       0.06250000       0.41666667       0.12500000 </v>
   <v>       0.18750000       0.41666667       0.12500000 </v>
   <v>       0.31250000       0.41666667       0.12500000 </v>
   <v>       0.43750000       0.41666667       0.12500000 </v>
   <v>       0.06250000       0.08333333       0.37500000 </v>
   <v>       0.18750000       0.08333333       0.37500000 </v>
   <v>       0.31250000       0.08333333       0.37500000 </v>
   <v>       0.43750000       0.08333333       0.37500000 </v>
   <v>       0.06250000       0.25000000       0.37500000 </v>
   <v>       0.18750000       0.25000000       0.37500000 </v>
   <v>       0.31250000       0.25000000       0.37500000 </v>
   <v>       0.43750000       0.25000000       0.37500000 </v>
   <v>       0.06250000       0.41666667       0.37500000 </v>
   <v>       0.18750000       0.41666667       0.37500000 </v>
   <v>       0.31250000       0.41666667       0.37500000 </v>
   <v>       0.43750000       0.41666667       0.37500000 </v>
  </varray>
  <varray name="weights" >
   <v>       0.04166667 </v>
   <v>       0.04166667 </v>
   <v>       0.04166667 </v>
   <v>       0.04166667 </v>
   <v>       0.04166667 </v>
   <v>       0.04166667 </v>
   <v>       0.04166667 </v>
   <v>       0.04166667 </v>
   <v>       0.04166667 </v>
   <v>       0.04166667 </v>
   <v>       0.04166667 </v>
   <v>       0.04166667 </v>
   <v>       0.04166667 </v>
   <v>       0.04166667 </v>
   <v>       0.04166667 </v>
   <v>       0.04166667 </v>
   <v>       0.04166667 </v>
   <v>       0.04166667 </v>
   <v>       0.04166667 </v>
   <v>       0.04166667 </v>
   <v>       0.04166667 </v>
   <v>       0.04166667 </v>
   <v>       0.04166667 </v>
   <v>       0.04166667 </v>
  </varray>
 </kpoints>
 <parameters>
  <separator name="general" >
   <i type="string" name="SYSTEM">unknown system</i>
   <i type="logical" name="LCOMPAT"> F  </i>
  </separator>
  <separator name="electronic" >
   <i type="string" name="PREC">accura</i>
   <i name="ENMAX">    520.00000000</i>
   <i name="ENAUG">    644.87300000</i>
   <i name="EDIFF">      0.00040000</i>
   <i type="int" name="IALGO">    38</i>
   <i type="int" name="IWAVPR">    10</i>
   <i type="int" name="NBANDS">    48</i>
   <i name="NELECT">     60.00000000</i>
   <i type="int" name="TURBO">     0</i>
   <i type="int" name="IRESTART">     0</i>
   <i type="int" name="NREBOOT">     0</i>
   <i type="int" name="NMIN">     0</i>
   <i name="EREF">      0.00000000</i>
   <separator name="electronic smearing" >
    <i type="int" name="ISMEAR">     1</i>
    <i name="SIGMA">      0.05000000</i>
    <i name="KSPACING">      0.50000000</i>
    <i type="logical" name="KGAMMA"> T  </i>
   </separator>
   <separator name="electronic projectors" >
    <i type="logical" name="LREAL"> T  </i>
    <v name="ROPT">     -0.00025000     -0.00025000</v>
    <i type="int" name="LMAXPAW">  -100</i>
    <i type="int" name="LMAXMIX">     2</i>
    <i type="logical" name="NLSPLINE"> F  </i>
   </separator>
   <separator name="electronic startup" >
    <i type="int" name="ISTART">     0</i>
    <i type="int" name="ICHARG">     0</i>
    <i type="int" name="INIWAV">     1</i>
   </separator>
   <separator name="electronic spin" >
    <i type="int" name="ISPIN">     1</i>
    <i type="logical" name="LNONCOLLINEAR"> F  </i>
    <v name="MAGMOM">      0.60000000      0.60000000      0.60000000      0.60000000      0.60000000      0.60000000      0.60000000      0.60000000</v>
    <i name="NUPDOWN">     -1.00000000</i>
    <i type="logical" name="LSORBIT"> F  </i>
    <v name="SAXIS">      0.00000000      0.00000000      1.00000000</v>
    <i type="logical" name="LSPIRAL"> F  </i>
    <v name="QSPIRAL">      0.00000000      0.00000000      0.00000000</v>
    <i type="logical" name="LZEROZ"> F  </i>
   </separator>
   <separator name="electronic exchange-correlation" >
    <i type="logical" name="LASPH"> F  </i>
    <i type="logical" name="LMETAGGA"> F  </i>
   </separator>
   <separator name="electronic convergence" >
    <i type="int" name="NELM">   100</i>
    <i type="int" name="NELMDL">    -5</i>
    <i type="int" name="NELMIN">     2</i>
    <i name="ENINI">    520.00000000</i>
    <separator name="electronic convergence detail" >
     <i type="logical" name="LDIAG"> T  </i>
     <i type="logical" name="LSUBROT"> F  </i>
     <i name="WEIMIN">      0.00000000</i>
     <i name="EBREAK">      0.00000208</i>
     <i name="DEPER">      0.30000000</i>
     <i type="int" name="NRMM">     4</i>
     <i name="TIME">      0.40000000</i>
    </separator>
   </separator>
   <separator name="electronic mixer" >
    <i name="AMIX">      0.40000000</i>
    <i name="BMIX">      1.00000000</i>
    <i name="AMIN">      0.10000000</i>
    <i name="AMIX_MAG">      1.60000000</i>
    <i name="BMIX_MAG">      1.00000000</i>
    <separator name="electronic mixer details" >
     <i type="int" name="IMIX">     4</i>
     <i type="logical" name="MIXFIRST"> F  </i>
     <i type="int" name="MAXMIX">   -45</i>
     <i name="WC">    100.00000000</i>
     <i type="int" name="INIMIX">     1</i>
     <i type="int" name="MIXPRE">     1</i>
     <i type="int" name="MREMOVE">     5</i>
    </separator>
   </separator>
   <separator name="electronic dipolcorrection" >
    <i type="logical" name="LDIPOL"> F  </i>
    <i type="logical" name="LMONO"> F  </i>
    <i type="int" name="IDIPOL">     0</i>
    <i name="EPSILON">      1.00000000</i>
    <v name="DIPOL">   -100.00000000   -100.00000000   -100.00000000</v>
    <i name="EFIELD">      0.00000000</i>
   </separator>
  </separator>
  <separator name="grids" >
   <i type="int" name="NGX">    28</i>
   <i type="int" name="NGY">    36</i>
   <i type="int" name="NGZ">    48</i>
   <i type="int" name="NGXF">    56</i>
   <i type="int" name="NGYF">    72</i>
   <i type="int" name="NGZF">    96</i>
   <i type="logical" name="ADDGRID"> F  </i>
  </separator>
  <separator name="ionic" >
   <i type="int" name="NSW">     0</i>
   <i type="int" name="IBRION">    -1</i>
   <i type="int" name="ISIF">     3</i>
   <i name="PSTRESS">      0.00000000</i>
   <i name="EDIFFG">      0.00400000</i>
   <i type="int" name="NFREE">     0</i>
   <i name="POTIM">      0.50000000</i>
   <i name="SMASS">     -3.00000000</i>
   <i name="SCALEE">      1.00000000</i>
  </separator>
  <separator name="ionic md" >
   <i name="TEBEG">      0.00010000</i>
   <i name="TEEND">      0.00010000</i>
   <i type="int" name="NBLOCK">     1</i>
   <i type="int" name="KBLOCK">     1</i>
   <i type="int" name="NPACO">   256</i>
   <i name="APACO">     16.00000000</i>
  </separator>
  <separator name="symmetry" >
   <i type="int" name="ISYM">     2</i>
   <i name="SYMPREC">      0.00001000</i>
  </separator>
  <separator name="dos" >
   <i type="logical" name="LORBIT"> F  </i>
   <v name="RWIGS">     -1.00000000     -1.00000000</v>
   <i type="int" name="NEDOS">   301</i>
   <i name="EMIN">     10.00000000</i>
   <i name="EMAX">    -10.00000000</i>
   <i name="EFERMI">      0.00000000</i>
  </separator>
  <separator name="writing" >
   <i type="int" name="NWRITE">     2</i>
   <i type="logical" name="LWAVE"> T  </i>
   <i type="logical" name="LCHARG"> T  </i>
   <i type="logical" name="LPARD"> F  </i>
   <i type="logical" name="LVTOT"> F  </i>
   <i type="logical" name="LVHAR"> F  </i>
   <i type="logical" name="LELF"> T  </i>
   <i type="logical" name="LOPTICS"> F  </i>
   <v name="STM">      0.00000000      0.00000000      0.00000000      0.00000000      0.00000000      0.00000000      0.00000000</v>
  </separator>
  <separator name="performance" >
   <i type="int" name="NPAR">    24</i>
   <i type="int" name="NSIM">     4</i>
   <i type="int" name="NBLK">    -1</i>
   <i type="logical" name="LPLANE"> T  </i>
   <i type="logical" name="LSCALAPACK"> T  </i>
   <i type="logical" name="LSCAAWARE"> F  </i>
   <i type="logical" name="LSCALU"> F  </i>
   <i type="logical" name="LASYNC"> F  </i>
   <i type="logical" name="LORBITALREAL"> F  </i>
  </separator>
  <separator name="miscellaneous" >
   <i type="int" name="IDIOT">     3</i>
   <i type="logical" name="LMUSIC"> F  </i>
   <v name="POMASS">     44.95600000     12.01100000</v>
   <v name="DARWINR">      0.00000000      0.00000000</v>
   <v name="DARWINV">      1.00000000      1.00000000</v>
   <i type="logical" name="LCORR"> T  </i>
  </separator>
  <i type="logical" name="GGA_COMPAT"> T  </i>
  <i type="logical" name="LBERRY"> F  </i>
  <i type="int" name="ICORELEVEL">     0</i>
  <i type="logical" name="LDAU"> F  </i>
  <i type="int" name="I_CONSTRAINED_M">     0</i>
  <separator name="electronic exchange-correlation" >
   <i type="string" name="GGA">--</i>
   <i type="int" name="VOSKOWN">     0</i>
   <i type="logical" name="LHFCALC"> F  </i>
   <i type="string" name="PRECFOCK"></i>
   <i type="logical" name="LSYMGRAD"> F  </i>
   <i type="logical" name="LHFONE"> F  </i>
   <i type="logical" name="LRHFCALC"> F  </i>
   <i type="logical" name="LTHOMAS"> F  </i>
   <i type="logical" name="LMODELHF"> F  </i>
   <i name="ENCUT4O">     -1.00000000</i>
   <i type="int" name="EXXOEP">     0</i>
   <i type="int" name="FOURORBIT">     0</i>
   <i name="AEXX">      0.00000000</i>
   <i name="HFALPHA">      0.00000000</i>
   <i name="MCALPHA">      0.00000000</i>
   <i name="ALDAX">      1.00000000</i>
   <i name="AGGAX">      1.00000000</i>
   <i name="ALDAC">      1.00000000</i>
   <i name="AGGAC">      1.00000000</i>
   <i type="int" name="NKREDX">     1</i>
   <i type="int" name="NKREDY">     1</i>
   <i type="int" name="NKREDZ">     1</i>
   <i type="logical" name="SHIFTRED"> F  </i>
   <i type="logical" name="ODDONLY"> F  </i>
   <i type="logical" name="EVENONLY"> F  </i>
   <i type="int" name="LMAXFOCK">     0</i>
   <i type="int" name="NMAXFOCKAE">     0</i>
   <i type="logical" name="LFOCKAEDFT"> F  </i>
   <i name="HFSCREEN">      0.00000000</i>
   <i name="HFSCREENC">      0.00000000</i>
   <i type="int" name="NBANDSGWLOW">     0</i>
  </separator>
  <separator name="vdW DFT" >
   <i type="logical" name="LUSE_VDW"> F  </i>
   <i name="Zab_VDW">     -0.84910000</i>
   <i name="PARAM1">      0.12340000</i>
   <i name="PARAM2">      1.00000000</i>
   <i name="PARAM3">      0.00000000</i>
  </separator>
  <separator name="model GW" >
   <i type="int" name="MODEL_GW">     0</i>
   <i name="MODEL_EPS0">      7.54590387</i>
   <i name="MODEL_ALPHA">      1.00000000</i>
  </separator>
  <separator name="linear response parameters" >
   <i type="logical" name="LEPSILON"> F  </i>
   <i type="logical" name="LRPA"> F  </i>
   <i type="logical" name="LNABLA"> F  </i>
   <i type="logical" name="LVEL"> F  </i>
   <i type="int" name="KINTER">     0</i>
   <i name="CSHIFT">      0.10000000</i>
   <i name="OMEGAMAX">     -1.00000000</i>
   <i name="DEG_THRESHOLD">      0.00200000</i>
  </separator>
  <separator name="orbital magnetization" >
   <i type="logical" name="NUCIND"> F  </i>
   <v name="MAGPOS">      0.00000000      0.00000000      0.00000000</v>
   <i type="logical" name="LNICSALL"> T  </i>
   <i type="logical" name="ORBITALMAG"> F  </i>
   <i type="logical" name="LMAGBLOCH"> F  </i>
   <i type="logical" name="LCHIMAG"> F  </i>
   <i type="logical" name="LGAUGE"> T  </i>
   <i type="int" name="MAGATOM">     0</i>
   <v name="MAGDIPOL">      0.00000000      0.00000000      0.00000000</v>
   <v name="AVECCONST">      0.00000000      0.00000000      0.00000000</v>
  </separator>
  <separator name="response functions" >
   <i type="logical" name="LADDER"> F  </i>
   <i type="logical" name="LFXC"> F  </i>
   <i type="logical" name="LHARTREE"> T  </i>
   <i type="int" name="IBSE">     0</i>
   <v type="int" name="KPOINT">    -1     0     0     0</v>
   <i type="logical" name="LTCTE"> F  </i>
   <i type="logical" name="LTETE"> F  </i>
   <i type="logical" name="LTRIPLET"> F  </i>
   <i type="logical" name="LFXCEPS"> F  </i>
   <i type="logical" name="LFXHEG"> F  </i>
   <i type="int" name="NATURALO">     0</i>
   <i type="logical" name="L2ORDER"> F  </i>
   <i type="logical" name="LUSEW"> F  </i>
   <i name="ENCUTGW">     -2.00000000</i>
   <i name="ENCUTGWSOFT">     -2.00000000</i>
   <i name="ENCUTLF">     -1.00000000</i>
   <i type="int" name="LMAXMP2">    -1</i>
   <i name="SCISSOR">      0.00000000</i>
   <i type="int" name="NOMEGA">     0</i>
   <i type="int" name="NOMEGAR">     0</i>
   <i type="int" name="NBANDSGW">    -1</i>
   <i type="int" name="NBANDSO">    -1</i>
   <i type="int" name="NBANDSV">    -1</i>
   <i type="int" name="NELM">   100</i>
   <i type="int" name="NELMHF">     1</i>
   <i type="int" name="DIM">     3</i>
   <i type="int" name="ANTIRES">     0</i>
   <i name="OMEGAMAX">    -30.00000000</i>
   <i name="OMEGAMIN">    -30.00000000</i>
   <i name="OMEGATL">   -200.00000000</i>
   <i type="int" name="OMEGAGRID">     0</i>
   <i name="CSHIFT">     -0.10000000</i>
   <i type="logical" name="SELFENERGY"> F  </i>
   <i type="logical" name="LSPECTRAL"> F  </i>
   <i type="logical" name="LSPECTRALGW"> F  </i>
   <i type="logical" name="LSINGLES"> F  </i>
   <i type="logical" name="LFERMIGW"> F  </i>
   <i type="logical" name="ODDONLYGW"> F  </i>
   <i type="logical" name="EVENONLYGW"> F  </i>
   <i type="int" name="NKREDLFX">     1</i>
   <i type="int" name="NKREDLFY">     1</i>
   <i type="int" name="NKREDLFZ">     1</i>
   <i type="int" name="MAXMEM">  1800</i>
   <i type="int" name="TELESCOPE">     0</i>
   <i type="int" name="TAUPAR">     1</i>
   <i type="int" name="OMEGAPAR">    -1</i>
   <i name="LAMBDA">      1.00000000</i>
  </separator>
  <separator name="External order field" >
   <i name="OFIELD_KAPPA">      0.00000000</i>
   <v name="OFIELD_K">      0.00000000      0.00000000      0.00000000</v>
   <i name="OFIELD_Q6_NEAR">      0.00000000</i>
   <i name="OFIELD_Q6_FAR">      0.00000000</i>
   <i name="OFIELD_A">      0.00000000</i>
  </separator>
 </parameters>
 <atominfo>
  <atoms>       8 </atoms>
  <types>       2 </types>
  <array name="atoms" >
   <dimension dim="1">ion</dimension>
   <field type="string">element</field>
   <field type="int">atomtype</field>
   <set>
    <rc><c>Sc</c><c>   1</c></rc>
    <rc><c>Sc</c><c>   1</c></rc>
    <rc><c>Sc</c><c>   1</c></rc>
    <rc><c>Sc</c><c>   1</c></rc>
    <rc><c>C </c><c>   2</c></rc>
    <rc><c>C </c><c>   2</c></rc>
    <rc><c>C </c><c>   2</c></rc>
    <rc><c>C </c><c>   2</c></rc>
   </set>
  </array>
  <array name="atomtypes" >
   <dimension dim="1">type</dimension>
   <field type="int">atomspertype</field>
   <field type="string">element</field>
   <field>mass</field>
   <field>valence</field>
   <field type="string">pseudopotential</field>
   <set>
    <rc><c>   4</c><c>Sc</c><c>     44.95600000</c><c>     11.00000000</c><c> PAW_PBE Sc_sv 07Sep2000                </c></rc>
    <rc><c>   4</c><c>C </c><c>     12.01100000</c><c>      4.00000000</c><c> PAW_PBE C 08Apr2002                    </c></rc>
   </set>
  </array>
 </atominfo>
 <structure name="initialpos" >
  <crystal>
   <varray name="basis" >
    <v>       3.47864100       0.00000000       0.00000000 </v>
    <v>       0.00000000       4.68256500       0.00000000 </v>
    <v>       0.00000000       0.00000000       6.17670100 </v>
   </varray>
   <i name="volume">    100.61205154 </i>
   <varray name="rec_basis" >
    <v>       0.28746858       0.00000000       0.00000000 </v>
    <v>       0.00000000       0.21355817       0.00000000 </v>
    <v>       0.00000000       0.00000000       0.16189872 </v>
   </varray>
  </crystal>
  <varray name="positions" >
   <v>       0.00000000       0.50000000       0.60651900 </v>
   <v>       0.00000000       0.00000000       0.95808100 </v>
   <v>       0.50000000       0.50000000       0.04191900 </v>
   <v>       0.50000000       0.00000000       0.39348100 </v>
   <v>       0.50000000       0.83775000       0.74446900 </v>
   <v>       0.50000000       0.16225000       0.74446900 </v>
   <v>       0.00000000       0.33775000       0.25553100 </v>
   <v>       0.00000000       0.66225000       0.25553100 </v>
  </varray>
 </structure>
 <calculation>
  <scstep>
   <time name="dav">    1.45    1.45</time>
   <time name="total">    1.47    1.47</time>
   <energy>
    <i name="alphaZ">    370.89219897 </i>
    <i name="ewald">  -4441.14155982 </i>
    <i name="hartreedc">    -70.59173948 </i>
    <i name="XCdc">    196.26020230 </i>
    <i name="pawpsdc">   1710.61742149 </i>
    <i name="pawaedc">  -1750.62156475 </i>
    <i name="eentropy">     -0.00017305 </i>
    <i name="bandstr">  -2578.74626499 </i>
    <i name="atom">   5679.87863075 </i>
    <i name="e_fr_energy">   -883.45284857 </i>
    <i name="e_wo_entrp">   -883.45267552 </i>
    <i name="e_0_energy">   -883.45279089 </i>
   </energy>
  </scstep>
  <scstep>
   <time name="dav">    1.68    1.68</time>
   <time name="total">    1.68    1.68</time>
   <energy>
    <i name="e_fr_energy">  -1421.49848022 </i>
    <i name="e_wo_entrp">  -1421.49848022 </i>
    <i name="e_0_energy">  -1421.49848022 </i>
   </energy>
  </scstep>
  <scstep>
   <time name="dav">    1.78    1.78</time>
   <time name="total">    1.78    1.78</time>
   <energy>
    <i name="e_fr_energy">  -1440.55687275 </i>
    <i name="e_wo_entrp">  -1440.56435416 </i>
    <i name="e_0_energy">  -1440.55936655 </i>
   </energy>
  </scstep>
  <scstep>
   <time name="dav">    2.03    2.03</time>
   <time name="total">    2.03    2.03</time>
   <energy>
    <i name="e_fr_energy">  -1441.00935421 </i>
    <i name="e_wo_entrp">  -1441.01684158 </i>
    <i name="e_0_energy">  -1441.01185000 </i>
   </energy>
  </scstep>
  <scstep>
   <time name="dav">    1.93    1.94</time>
   <time name="total">    2.07    2.07</time>
   <energy>
    <i name="e_fr_energy">  -1441.01375753 </i>
    <i name="e_wo_entrp">  -1441.02124504 </i>
    <i name="e_0_energy">  -1441.01625336 </i>
   </energy>
  </scstep>
  <scstep>
   <time name="dav">    2.74    2.75</time>
   <time name="total">    2.81    2.81</time>
   <energy>
    <i name="e_fr_energy">   -363.11333142 </i>
    <i name="e_wo_entrp">   -363.11433170 </i>
    <i name="e_0_energy">   -363.11366485 </i>
   </energy>
  </scstep>
  <scstep>
   <time name="dav">    2.12    2.12</time>
   <time name="total">    2.18    2.18</time>
   <energy>
    <i name="e_fr_energy">   -143.49987194 </i>
    <i name="e_wo_entrp">   -143.49730210 </i>
    <i name="e_0_energy">   -143.49901533 </i>
   </energy>
  </scstep>
  <scstep>
   <time name="dav">    2.42    2.44</time>
   <time name="total">    2.48    2.49</time>
   <energy>
    <i name="e_fr_energy">    -88.81097915 </i>
    <i name="e_wo_entrp">    -88.81110158 </i>
    <i name="e_0_energy">    -88.81101996 </i>
   </energy>
  </scstep>
  <scstep>
   <time name="dav">    2.41    2.41</time>
   <time name="total">    2.47    2.48</time>
   <energy>
    <i name="e_fr_energy">    -84.97865925 </i>
    <i name="e_wo_entrp">    -84.97904592 </i>
    <i name="e_0_energy">    -84.97878814 </i>
   </energy>
  </scstep>
  <scstep>
   <time name="dav">    2.44    2.44</time>
   <time name="total">    2.50    2.50</time>
   <energy>
    <i name="e_fr_energy">    -68.67597299 </i>
    <i name="e_wo_entrp">    -68.67516951 </i>
    <i name="e_0_energy">    -68.67570517 </i>
   </energy>
  </scstep>
  <scstep>
   <time name="dav">    2.44    2.44</time>
   <time name="total">    2.50    2.50</time>
   <energy>
    <i name="e_fr_energy">    -72.20689018 </i>
    <i name="e_wo_entrp">    -72.20766481 </i>
    <i name="e_0_energy">    -72.20714839 </i>
   </energy>
  </scstep>
  <scstep>
   <time name="dav">    2.43    2.45</time>
   <time name="total">    2.49    2.50</time>
   <energy>
    <i name="e_fr_energy">    -68.43071460 </i>
    <i name="e_wo_entrp">    -68.43067710 </i>
    <i name="e_0_energy">    -68.43070210 </i>
   </energy>
  </scstep>
  <scstep>
   <time name="dav">    2.43    2.44</time>
   <time name="total">    2.49    2.49</time>
   <energy>
    <i name="e_fr_energy">    -66.13526339 </i>
    <i name="e_wo_entrp">    -66.13558745 </i>
    <i name="e_0_energy">    -66.13537141 </i>
   </energy>
  </scstep>
  <scstep>
   <time name="dav">    2.25    2.25</time>
   <time name="total">    2.30    2.31</time>
   <energy>
    <i name="e_fr_energy">    -65.95531850 </i>
    <i name="e_wo_entrp">    -65.95483857 </i>
    <i name="e_0_energy">    -65.95515852 </i>
   </energy>
  </scstep>
  <scstep>
   <time name="dav">    2.17    2.17</time>
   <time name="total">    2.23    2.24</time>
   <energy>
    <i name="e_fr_energy">    -65.83359992 </i>
    <i name="e_wo_entrp">    -65.83424243 </i>
    <i name="e_0_energy">    -65.83381409 </i>
   </energy>
  </scstep>
  <scstep>
   <time name="dav">    2.43    2.44</time>
   <time name="total">    2.49    2.50</time>
   <energy>
    <i name="e_fr_energy">    -65.82102323 </i>
    <i name="e_wo_entrp">    -65.82261488 </i>
    <i name="e_0_energy">    -65.82155378 </i>
   </energy>
  </scstep>
  <scstep>
   <time name="dav">    1.58    1.58</time>
   <time name="total">    1.59    1.60</time>
   <energy>
    <i name="alphaZ">    370.89219897 </i>
    <i name="ewald">  -4441.14155982 </i>
    <i name="hartreedc">  -1117.98896519 </i>
    <i name="XCdc">    260.04920849 </i>
    <i name="pawpsdc">   3743.36692989 </i>
    <i name="pawaedc">  -3723.95133000 </i>
    <i name="eentropy">      0.00158253 </i>
    <i name="bandstr">   -836.92778482 </i>
    <i name="atom">   5679.87863075 </i>
    <i name="e_fr_energy">    -65.82108919 </i>
    <i name="e_wo_entrp">    -65.82267172 </i>
    <i name="e_0_energy">    -65.82161670 </i>
   </energy>
  </scstep>
  <structure>
   <crystal>
    <varray name="basis" >
     <v>       3.47864100       0.00000000       0.00000000 </v>
     <v>       0.00000000       4.68256500       0.00000000 </v>
     <v>       0.00000000       0.00000000       6.17670100 </v>
    </varray>
    <i name="volume">    100.61205154 </i>
    <varray name="rec_basis" >
     <v>       0.28746858       0.00000000       0.00000000 </v>
     <v>       0.00000000       0.21355817       0.00000000 </v>
     <v>       0.00000000       0.00000000       0.16189872 </v>
    </varray>
   </crystal>
   <varray name="positions" >
    <v>       0.00000000       0.50000000       0.60651900 </v>
    <v>       0.00000000       0.00000000       0.95808100 </v>
    <v>       0.50000000       0.50000000       0.04191900 </v>
    <v>       0.50000000       0.00000000       0.39348100 </v>
    <v>       0.50000000       0.83775000       0.74446900 </v>
    <v>       0.50000000       0.16225000       0.74446900 </v>
    <v>       0.00000000       0.33775000       0.25553100 </v>
    <v>       0.00000000       0.66225000       0.25553100 </v>
   </varray>
  </structure>
  <varray name="forces" >
   <v>       0.00000000       0.00000000       0.02408274 </v>
   <v>       0.00000000       0.00000000       0.07723516 </v>
   <v>       0.00000000       0.00000000      -0.07723516 </v>
   <v>       0.00000000       0.00000000      -0.02408274 </v>
   <v>       0.00000000       0.06918850      -0.00447732 </v>
   <v>      -0.00000000      -0.06918850      -0.00447732 </v>
   <v>       0.00000000       0.06918850       0.00447732 </v>
   <v>       0.00000000      -0.06918850       0.00447732 </v>
  </varray>
  <varray name="stress" >
   <v>      -4.62998221       0.00000000       0.00000000 </v>
   <v>       0.00000000       1.73781963       0.00000000 </v>
   <v>       0.00000000       0.00000000       5.81088683 </v>
  </varray>
  <energy>
   <i name="e_fr_energy">    -65.82108919 </i>
   <i name="e_wo_entrp">    -65.82161670 </i>
   <i name="e_0_energy">      0.00158253 </i>
  </energy>
  <time name="totalsc">   39.62   39.77</time>
  <eigenvalues>
   <array>
    <dimension dim="1">band</dimension>
    <dimension dim="2">kpoint</dimension>
    <dimension dim="3">spin</dimension>
    <field>eigene</field>
    <field>occ</field>
    <set>
     <set comment="spin 1">
      <set comment="kpoint 1">
       <r>  -43.1555    1.0000 </r>
       <r>  -43.1024    1.0000 </r>
       <r>  -42.6181    1.0000 </r>
       <r>  -42.4920    1.0000 </r>
       <r>  -21.9993    1.0000 </r>
       <r>  -21.9367    1.0000 </r>
       <r>  -21.9001    1.0000 </r>
       <r>  -21.8793    1.0000 </r>
       <r>  -21.7925    1.0000 </r>
       <r>  -21.7173    1.0000 </r>
       <r>  -21.5755    1.0000 </r>
       <r>  -21.4460    1.0000 </r>
       <r>  -21.3973    1.0000 </r>
       <r>  -21.3476    1.0000 </r>
       <r>  -21.1644    1.0000 </r>
       <r>  -20.9787    1.0000 </r>
       <r>   -8.0263    1.0000 </r>
       <r>   -7.4670    1.0000 </r>
       <r>   -1.4173    1.0000 </r>
       <r>   -0.9598    1.0000 </r>
       <r>    0.4658    1.0000 </r>
       <r>    0.8379    1.0000 </r>
       <r>    1.3239    1.0000 </r>
       <r>    1.9082    1.0000 </r>
       <r>    2.2597    1.0000 </r>
       <r>    2.9468    1.0000 </r>
       <r>    4.7381    1.0000 </r>
       <r>    4.8249    1.0000 </r>
       <r>    5.4190    1.0000 </r>
       <r>    5.9990   -0.0000 </r>
       <r>    6.5248   -0.0000 </r>
       <r>    6.8491   -0.0000 </r>
       <r>    7.3083    0.0000 </r>
       <r>    7.8543    0.0000 </r>
       <r>    7.9482    0.0000 </r>
       <r>    8.2945    0.0000 </r>
       <r>    8.4153    0.0000 </r>
       <r>    8.7061    0.0000 </r>
       <r>    9.2999    0.0000 </r>
       <r>    9.7693    0.0000 </r>
       <r>    9.9286    0.0000 </r>
       <r>   10.0374    0.0000 </r>
       <r>   10.3923    0.0000 </r>
       <r>   10.6396    0.0000 </r>
       <r>   10.8758    0.0000 </r>
       <r>   11.1878    0.0000 </r>
       <r>   11.2820    0.0000 </r>
       <r>   11.6716    0.0000 </r>
      </set>
      <set comment="kpoint 2">
       <r>  -43.1487    1.0000 </r>
       <r>  -43.1036    1.0000 </r>
       <r>  -42.6055    1.0000 </r>
       <r>  -42.4984    1.0000 </r>
       <r>  -21.9796    1.0000 </r>
       <r>  -21.9712    1.0000 </r>
       <r>  -21.9048    1.0000 </r>
       <r>  -21.8618    1.0000 </r>
       <r>  -21.8159    1.0000 </r>
       <r>  -21.7303    1.0000 </r>
       <r>  -21.5488    1.0000 </r>
       <r>  -21.4850    1.0000 </r>
       <r>  -21.3654    1.0000 </r>
       <r>  -21.3548    1.0000 </r>
       <r>  -21.2379    1.0000 </r>
       <r>  -21.0153    1.0000 </r>
       <r>   -7.8686    1.0000 </r>
       <r>   -7.4056    1.0000 </r>
       <r>   -1.3870    1.0000 </r>
       <r>   -0.9889    1.0000 </r>
       <r>    0.6313    1.0000 </r>
       <r>    0.8901    1.0000 </r>
       <r>    1.4710    1.0000 </r>
       <r>    1.9842    1.0000 </r>
       <r>    2.1157    1.0000 </r>
       <r>    2.4621    1.0000 </r>
       <r>    4.6073    1.0000 </r>
       <r>    4.7470    1.0000 </r>
       <r>    5.4070    1.0000 </r>
       <r>    5.5890    1.0007 </r>
       <r>    6.1167   -0.0000 </r>
       <r>    6.7358   -0.0000 </r>
       <r>    6.9002   -0.0000 </r>
       <r>    7.7062    0.0000 </r>
       <r>    8.5175    0.0000 </r>
       <r>    8.5877    0.0000 </r>
       <r>    8.8180    0.0000 </r>
       <r>    9.2523    0.0000 </r>
       <r>    9.4978    0.0000 </r>
       <r>    9.8671    0.0000 </r>
       <r>    9.9310    0.0000 </r>
       <r>   10.0110    0.0000 </r>
       <r>   10.4506    0.0000 </r>
       <r>   10.6100    0.0000 </r>
       <r>   11.1991    0.0000 </r>
       <r>   11.2627    0.0000 </r>
       <r>   11.4141    0.0000 </r>
       <r>   11.7663    0.0000 </r>
      </set>
      <set comment="kpoint 3">
       <r>  -43.1373    1.0000 </r>
       <r>  -43.1072    1.0000 </r>
       <r>  -42.5834    1.0000 </r>
       <r>  -42.5117    1.0000 </r>
       <r>  -22.0190    1.0000 </r>
       <r>  -21.9555    1.0000 </r>
       <r>  -21.9234    1.0000 </r>
       <r>  -21.8400    1.0000 </r>
       <r>  -21.8208    1.0000 </r>
       <r>  -21.7596    1.0000 </r>
       <r>  -21.5593    1.0000 </r>
       <r>  -21.4384    1.0000 </r>
       <r>  -21.4052    1.0000 </r>
       <r>  -21.3386    1.0000 </r>
       <r>  -21.3106    1.0000 </r>
       <r>  -21.0896    1.0000 </r>
       <r>   -7.6292    1.0000 </r>
       <r>   -7.3313    1.0000 </r>
       <r>   -1.3322    1.0000 </r>
       <r>   -1.0586    1.0000 </r>
       <r>    0.5354    1.0000 </r>
       <r>    1.2382    1.0000 </r>
       <r>    1.4527    1.0000 </r>
       <r>    1.8904    1.0000 </r>
       <r>    2.1083    1.0000 </r>
       <r>    2.3515    1.0000 </r>
       <r>    4.5087    1.0000 </r>
       <r>    4.6425    1.0000 </r>
       <r>    5.0089    1.0000 </r>
       <r>    5.2179    1.0000 </r>
       <r>    5.7719   -0.0303 </r>
       <r>    6.0944   -0.0000 </r>
       <r>    7.1090    0.0000 </r>
       <r>    7.7373    0.0000 </r>
       <r>    8.9700    0.0000 </r>
       <r>    9.0574    0.0000 </r>
       <r>    9.3193    0.0000 </r>
       <r>    9.7398    0.0000 </r>
       <r>    9.7563    0.0000 </r>
       <r>    9.8869    0.0000 </r>
       <r>   10.0374    0.0000 </r>
       <r>   10.1315    0.0000 </r>
       <r>   10.4270    0.0000 </r>
       <r>   10.5525    0.0000 </r>
       <r>   11.0264    0.0000 </r>
       <r>   11.0656    0.0000 </r>
       <r>   11.3482    0.0000 </r>
       <r>   11.9275    0.0000 </r>
      </set>
      <set comment="kpoint 4">
       <r>  -43.1247    1.0000 </r>
       <r>  -43.1142    1.0000 </r>
       <r>  -42.5570    1.0000 </r>
       <r>  -42.5318    1.0000 </r>
       <r>  -22.0339    1.0000 </r>
       <r>  -22.0103    1.0000 </r>
       <r>  -21.8660    1.0000 </r>
       <r>  -21.8264    1.0000 </r>
       <r>  -21.8200    1.0000 </r>
       <r>  -21.8021    1.0000 </r>
       <r>  -21.5538    1.0000 </r>
       <r>  -21.4963    1.0000 </r>
       <r>  -21.3658    1.0000 </r>
       <r>  -21.3363    1.0000 </r>
       <r>  -21.2903    1.0000 </r>
       <r>  -21.1907    1.0000 </r>
       <r>   -7.4185    1.0000 </r>
       <r>   -7.3171    1.0000 </r>
       <r>   -1.2531    1.0000 </r>
       <r>   -1.1556    1.0000 </r>
       <r>    0.5354    1.0000 </r>
       <r>    0.8199    1.0000 </r>
       <r>    1.7656    1.0000 </r>
       <r>    1.9050    1.0000 </r>
       <r>    2.2977    1.0000 </r>
       <r>    2.4175    1.0000 </r>
       <r>    4.5027    1.0000 </r>
       <r>    4.6004    1.0000 </r>
       <r>    4.7448    1.0000 </r>
       <r>    4.8945    1.0000 </r>
       <r>    5.5640    1.0001 </r>
       <r>    5.6400    1.0241 </r>
       <r>    7.5192    0.0000 </r>
       <r>    7.7436    0.0000 </r>
       <r>    9.2077    0.0000 </r>
       <r>    9.3071    0.0000 </r>
       <r>    9.6107    0.0000 </r>
       <r>    9.7462    0.0000 </r>
       <r>    9.8855    0.0000 </r>
       <r>    9.9574    0.0000 </r>
       <r>   10.1853    0.0000 </r>
       <r>   10.2663    0.0000 </r>
       <r>   10.3803    0.0000 </r>
       <r>   10.4613    0.0000 </r>
       <r>   10.9432    0.0000 </r>
       <r>   11.1043    0.0000 </r>
       <r>   11.3075    0.0000 </r>
       <r>   11.7170    0.0000 </r>
      </set>
      <set comment="kpoint 5">
       <r>  -43.1481    1.0000 </r>
       <r>  -43.1093    1.0000 </r>
       <r>  -42.6015    1.0000 </r>
       <r>  -42.5092    1.0000 </r>
       <r>  -22.0129    1.0000 </r>
       <r>  -21.9266    1.0000 </r>
       <r>  -21.9055    1.0000 </r>
       <r>  -21.8560    1.0000 </r>
       <r>  -21.8088    1.0000 </r>
       <r>  -21.7205    1.0000 </r>
       <r>  -21.5161    1.0000 </r>
       <r>  -21.4193    1.0000 </r>
       <r>  -21.3623    1.0000 </r>
       <r>  -21.3613    1.0000 </r>
       <r>  -21.2110    1.0000 </r>
       <r>  -21.0485    1.0000 </r>
       <r>   -7.8907    1.0000 </r>
       <r>   -7.4778    1.0000 </r>
       <r>   -1.9405    1.0000 </r>
       <r>   -1.6586    1.0000 </r>
       <r>    0.8716    1.0000 </r>
       <r>    1.5759    1.0000 </r>
       <r>    1.9884    1.0000 </r>
       <r>    2.1844    1.0000 </r>
       <r>    2.3034    1.0000 </r>
       <r>    2.7667    1.0000 </r>
       <r>    4.6188    1.0000 </r>
       <r>    4.9982    1.0000 </r>
       <r>    5.2211    1.0000 </r>
       <r>    5.6790    0.9894 </r>
       <r>    6.3555   -0.0000 </r>
       <r>    7.1078    0.0000 </r>
       <r>    7.4313    0.0000 </r>
       <r>    8.0153    0.0000 </r>
       <r>    8.1508    0.0000 </r>
       <r>    8.4234    0.0000 </r>
       <r>    8.7769    0.0000 </r>
       <r>    9.0743    0.0000 </r>
       <r>    9.2021    0.0000 </r>
       <r>    9.2889    0.0000 </r>
       <r>    9.5512    0.0000 </r>
       <r>    9.7744    0.0000 </r>
       <r>   10.4234    0.0000 </r>
       <r>   10.7617    0.0000 </r>
       <r>   10.9764    0.0000 </r>
       <r>   11.1051    0.0000 </r>
       <r>   11.3285    0.0000 </r>
       <r>   11.4458    0.0000 </r>
      </set>
      <set comment="kpoint 6">
       <r>  -43.1424    1.0000 </r>
       <r>  -43.1095    1.0000 </r>
       <r>  -42.5914    1.0000 </r>
       <r>  -42.5130    1.0000 </r>
       <r>  -21.9870    1.0000 </r>
       <r>  -21.9579    1.0000 </r>
       <r>  -21.9344    1.0000 </r>
       <r>  -21.8408    1.0000 </r>
       <r>  -21.8256    1.0000 </r>
       <r>  -21.7294    1.0000 </r>
       <r>  -21.5535    1.0000 </r>
       <r>  -21.4338    1.0000 </r>
       <r>  -21.3731    1.0000 </r>
       <r>  -21.3089    1.0000 </r>
       <r>  -21.3014    1.0000 </r>
       <r>  -21.0333    1.0000 </r>
       <r>   -7.7597    1.0000 </r>
       <r>   -7.4183    1.0000 </r>
       <r>   -1.8410    1.0000 </r>
       <r>   -1.5807    1.0000 </r>
       <r>    1.1105    1.0000 </r>
       <r>    1.4119    1.0000 </r>
       <r>    2.0088    1.0000 </r>
       <r>    2.2028    1.0000 </r>
       <r>    2.2892    1.0000 </r>
       <r>    2.3458    1.0000 </r>
       <r>    4.5695    1.0000 </r>
       <r>    4.7180    1.0000 </r>
       <r>    5.0343    1.0000 </r>
       <r>    5.2637    1.0000 </r>
       <r>    6.4714   -0.0000 </r>
       <r>    7.0034   -0.0000 </r>
       <r>    7.3267    0.0000 </r>
       <r>    7.6078    0.0000 </r>
       <r>    8.3149    0.0000 </r>
       <r>    8.5181    0.0000 </r>
       <r>    8.8257    0.0000 </r>
       <r>    9.4585    0.0000 </r>
       <r>    9.5709    0.0000 </r>
       <r>    9.6716    0.0000 </r>
       <r>    9.7916    0.0000 </r>
       <r>    9.8662    0.0000 </r>
       <r>   10.6164    0.0000 </r>
       <r>   10.6757    0.0000 </r>
       <r>   10.9832    0.0000 </r>
       <r>   11.1638    0.0000 </r>
       <r>   11.2211    0.0000 </r>
       <r>   11.4827    0.0000 </r>
      </set>
      <set comment="kpoint 7">
       <r>  -43.1330    1.0000 </r>
       <r>  -43.1110    1.0000 </r>
       <r>  -42.5739    1.0000 </r>
       <r>  -42.5215    1.0000 </r>
       <r>  -22.0133    1.0000 </r>
       <r>  -21.9773    1.0000 </r>
       <r>  -21.9337    1.0000 </r>
       <r>  -21.8498    1.0000 </r>
       <r>  -21.8130    1.0000 </r>
       <r>  -21.7542    1.0000 </r>
       <r>  -21.5999    1.0000 </r>
       <r>  -21.4698    1.0000 </r>
       <r>  -21.4083    1.0000 </r>
       <r>  -21.3452    1.0000 </r>
       <r>  -21.2417    1.0000 </r>
       <r>  -21.0546    1.0000 </r>
       <r>   -7.5638    1.0000 </r>
       <r>   -7.3445    1.0000 </r>
       <r>   -1.6889    1.0000 </r>
       <r>   -1.4887    1.0000 </r>
       <r>    1.0597    1.0000 </r>
       <r>    1.4075    1.0000 </r>
       <r>    1.7605    1.0000 </r>
       <r>    2.2375    1.0000 </r>
       <r>    2.2901    1.0000 </r>
       <r>    2.3789    1.0000 </r>
       <r>    4.4445    1.0000 </r>
       <r>    4.4799    1.0000 </r>
       <r>    4.7493    1.0000 </r>
       <r>    4.7504    1.0000 </r>
       <r>    6.3522   -0.0000 </r>
       <r>    6.6875   -0.0000 </r>
       <r>    7.4105    0.0000 </r>
       <r>    7.5276    0.0000 </r>
       <r>    8.2044    0.0000 </r>
       <r>    9.0477    0.0000 </r>
       <r>    9.1093    0.0000 </r>
       <r>    9.5267    0.0000 </r>
       <r>    9.7492    0.0000 </r>
       <r>    9.9001    0.0000 </r>
       <r>   10.1025    0.0000 </r>
       <r>   10.3504    0.0000 </r>
       <r>   10.5173    0.0000 </r>
       <r>   10.6282    0.0000 </r>
       <r>   10.9284    0.0000 </r>
       <r>   11.2149    0.0000 </r>
       <r>   11.2863    0.0000 </r>
       <r>   11.6951    0.0000 </r>
      </set>
      <set comment="kpoint 8">
       <r>  -43.1231    1.0000 </r>
       <r>  -43.1154    1.0000 </r>
       <r>  -42.5537    1.0000 </r>
       <r>  -42.5353    1.0000 </r>
       <r>  -22.0382    1.0000 </r>
       <r>  -22.0239    1.0000 </r>
       <r>  -21.8801    1.0000 </r>
       <r>  -21.8499    1.0000 </r>
       <r>  -21.8093    1.0000 </r>
       <r>  -21.7892    1.0000 </r>
       <r>  -21.6099    1.0000 </r>
       <r>  -21.5669    1.0000 </r>
       <r>  -21.3785    1.0000 </r>
       <r>  -21.3573    1.0000 </r>
       <r>  -21.1758    1.0000 </r>
       <r>  -21.1081    1.0000 </r>
       <r>   -7.3959    1.0000 </r>
       <r>   -7.3213    1.0000 </r>
       <r>   -1.5423    1.0000 </r>
       <r>   -1.4639    1.0000 </r>
       <r>    0.9094    1.0000 </r>
       <r>    1.0615    1.0000 </r>
       <r>    2.0626    1.0000 </r>
       <r>    2.2615    1.0000 </r>
       <r>    2.3649    1.0000 </r>
       <r>    2.4068    1.0000 </r>
       <r>    4.3642    1.0000 </r>
       <r>    4.4051    1.0000 </r>
       <r>    4.4540    1.0000 </r>
       <r>    4.5093    1.0000 </r>
       <r>    6.1986   -0.0000 </r>
       <r>    6.2929   -0.0000 </r>
       <r>    7.4711    0.0000 </r>
       <r>    7.5926    0.0000 </r>
       <r>    8.6349    0.0000 </r>
       <r>    9.1819    0.0000 </r>
       <r>    9.4678    0.0000 </r>
       <r>    9.5370    0.0000 </r>
       <r>    9.7825    0.0000 </r>
       <r>    9.8239    0.0000 </r>
       <r>   10.3888    0.0000 </r>
       <r>   10.4919    0.0000 </r>
       <r>   10.5933    0.0000 </r>
       <r>   10.6349    0.0000 </r>
       <r>   10.7352    0.0000 </r>
       <r>   11.0160    0.0000 </r>
       <r>   11.4559    0.0000 </r>
       <r>   11.7046    0.0000 </r>
      </set>
      <set comment="kpoint 9">
       <r>  -43.1356    1.0000 </r>
       <r>  -43.1214    1.0000 </r>
       <r>  -42.5726    1.0000 </r>
       <r>  -42.5388    1.0000 </r>
       <r>  -22.0076    1.0000 </r>
       <r>  -21.9739    1.0000 </r>
       <r>  -21.8722    1.0000 </r>
       <r>  -21.8376    1.0000 </r>
       <r>  -21.7950    1.0000 </r>
       <r>  -21.7444    1.0000 </r>
       <r>  -21.4397    1.0000 </r>
       <r>  -21.3915    1.0000 </r>
       <r>  -21.3725    1.0000 </r>
       <r>  -21.2907    1.0000 </r>
       <r>  -21.2770    1.0000 </r>
       <r>  -21.1606    1.0000 </r>
       <r>   -7.6953    1.0000 </r>
       <r>   -7.5427    1.0000 </r>
       <r>   -2.2660    1.0000 </r>
       <r>   -2.1715    1.0000 </r>
       <r>    1.2962    1.0000 </r>
       <r>    1.6521    1.0000 </r>
       <r>    2.3298    1.0000 </r>
       <r>    2.5292    1.0000 </r>
       <r>    2.7539    1.0000 </r>
       <r>    2.9199    1.0000 </r>
       <r>    4.4600    1.0000 </r>
       <r>    4.6360    1.0000 </r>
       <r>    5.4027    1.0000 </r>
       <r>    5.7528    0.0479 </r>
       <r>    6.4486   -0.0000 </r>
       <r>    7.0654   -0.0000 </r>
       <r>    7.3112    0.0000 </r>
       <r>    7.7857    0.0000 </r>
       <r>    8.4479    0.0000 </r>
       <r>    8.5215    0.0000 </r>
       <r>    8.5867    0.0000 </r>
       <r>    8.8209    0.0000 </r>
       <r>    9.2972    0.0000 </r>
       <r>    9.5549    0.0000 </r>
       <r>    9.7349    0.0000 </r>
       <r>    9.7707    0.0000 </r>
       <r>   10.5893    0.0000 </r>
       <r>   10.7981    0.0000 </r>
       <r>   10.9578    0.0000 </r>
       <r>   10.9917    0.0000 </r>
       <r>   11.3570    0.0000 </r>
       <r>   11.4181    0.0000 </r>
      </set>
      <set comment="kpoint 10">
       <r>  -43.1318    1.0000 </r>
       <r>  -43.1197    1.0000 </r>
       <r>  -42.5668    1.0000 </r>
       <r>  -42.5381    1.0000 </r>
       <r>  -21.9912    1.0000 </r>
       <r>  -21.9710    1.0000 </r>
       <r>  -21.9202    1.0000 </r>
       <r>  -21.8767    1.0000 </r>
       <r>  -21.7801    1.0000 </r>
       <r>  -21.7428    1.0000 </r>
       <r>  -21.5138    1.0000 </r>
       <r>  -21.4401    1.0000 </r>
       <r>  -21.3994    1.0000 </r>
       <r>  -21.3652    1.0000 </r>
       <r>  -21.1933    1.0000 </r>
       <r>  -21.0938    1.0000 </r>
       <r>   -7.6021    1.0000 </r>
       <r>   -7.4762    1.0000 </r>
       <r>   -2.1250    1.0000 </r>
       <r>   -2.0364    1.0000 </r>
       <r>    1.4893    1.0000 </r>
       <r>    1.8101    1.0000 </r>
       <r>    1.9611    1.0000 </r>
       <r>    2.1309    1.0000 </r>
       <r>    2.7807    1.0000 </r>
       <r>    2.8921    1.0000 </r>
       <r>    4.4294    1.0000 </r>
       <r>    4.5498    1.0000 </r>
       <r>    4.9162    1.0000 </r>
       <r>    5.0522    1.0000 </r>
       <r>    7.0366   -0.0000 </r>
       <r>    7.0998    0.0000 </r>
       <r>    7.3788    0.0000 </r>
       <r>    7.7150    0.0000 </r>
       <r>    8.1614    0.0000 </r>
       <r>    8.2495    0.0000 </r>
       <r>    8.7529    0.0000 </r>
       <r>    9.0565    0.0000 </r>
       <r>    9.4813    0.0000 </r>
       <r>    9.6433    0.0000 </r>
       <r>    9.8739    0.0000 </r>
       <r>   10.0361    0.0000 </r>
       <r>   10.6363    0.0000 </r>
       <r>   10.7579    0.0000 </r>
       <r>   11.0287    0.0000 </r>
       <r>   11.0806    0.0000 </r>
       <r>   11.2308    0.0000 </r>
       <r>   11.4117    0.0000 </r>
      </set>
      <set comment="kpoint 11">
       <r>  -43.1258    1.0000 </r>
       <r>  -43.1178    1.0000 </r>
       <r>  -42.5574    1.0000 </r>
       <r>  -42.5382    1.0000 </r>
       <r>  -22.0107    1.0000 </r>
       <r>  -22.0004    1.0000 </r>
       <r>  -21.9209    1.0000 </r>
       <r>  -21.8869    1.0000 </r>
       <r>  -21.7835    1.0000 </r>
       <r>  -21.7570    1.0000 </r>
       <r>  -21.6012    1.0000 </r>
       <r>  -21.5567    1.0000 </r>
       <r>  -21.3858    1.0000 </r>
       <r>  -21.3640    1.0000 </r>
       <r>  -21.1315    1.0000 </r>
       <r>  -21.0628    1.0000 </r>
       <r>   -7.4678    1.0000 </r>
       <r>   -7.3871    1.0000 </r>
       <r>   -1.9162    1.0000 </r>
       <r>   -1.8447    1.0000 </r>
       <r>    1.5342    1.0000 </r>
       <r>    1.6004    1.0000 </r>
       <r>    1.8399    1.0000 </r>
       <r>    2.0326    1.0000 </r>
       <r>    2.7605    1.0000 </r>
       <r>    2.8399    1.0000 </r>
       <r>    4.2678    1.0000 </r>
       <r>    4.3156    1.0000 </r>
       <r>    4.5664    1.0000 </r>
       <r>    4.6264    1.0000 </r>
       <r>    6.8317   -0.0000 </r>
       <r>    7.1192    0.0000 </r>
       <r>    7.2834    0.0000 </r>
       <r>    7.6235    0.0000 </r>
       <r>    8.0318    0.0000 </r>
       <r>    8.5857    0.0000 </r>
       <r>    9.1301    0.0000 </r>
       <r>    9.1924    0.0000 </r>
       <r>    9.5155    0.0000 </r>
       <r>    9.7719    0.0000 </r>
       <r>   10.1245    0.0000 </r>
       <r>   10.4019    0.0000 </r>
       <r>   10.6708    0.0000 </r>
       <r>   10.7054    0.0000 </r>
       <r>   11.0359    0.0000 </r>
       <r>   11.1897    0.0000 </r>
       <r>   11.3883    0.0000 </r>
       <r>   11.5734    0.0000 </r>
      </set>
      <set comment="kpoint 12">
       <r>  -43.1205    1.0000 </r>
       <r>  -43.1176    1.0000 </r>
       <r>  -42.5479    1.0000 </r>
       <r>  -42.5412    1.0000 </r>
       <r>  -22.0424    1.0000 </r>
       <r>  -22.0381    1.0000 </r>
       <r>  -21.8899    1.0000 </r>
       <r>  -21.8792    1.0000 </r>
       <r>  -21.7895    1.0000 </r>
       <r>  -21.7773    1.0000 </r>
       <r>  -21.6469    1.0000 </r>
       <r>  -21.6340    1.0000 </r>
       <r>  -21.3701    1.0000 </r>
       <r>  -21.3623    1.0000 </r>
       <r>  -21.0888    1.0000 </r>
       <r>  -21.0642    1.0000 </r>
       <r>   -7.3630    1.0000 </r>
       <r>   -7.3356    1.0000 </r>
       <r>   -1.7492    1.0000 </r>
       <r>   -1.7197    1.0000 </r>
       <r>    1.3044    1.0000 </r>
       <r>    1.3358    1.0000 </r>
       <r>    2.0053    1.0000 </r>
       <r>    2.0873    1.0000 </r>
       <r>    2.7872    1.0000 </r>
       <r>    2.8221    1.0000 </r>
       <r>    4.1559    1.0000 </r>
       <r>    4.1644    1.0000 </r>
       <r>    4.3707    1.0000 </r>
       <r>    4.4045    1.0000 </r>
       <r>    6.7225   -0.0000 </r>
       <r>    6.8955   -0.0000 </r>
       <r>    7.0725   -0.0000 </r>
       <r>    7.2833    0.0000 </r>
       <r>    8.7505    0.0000 </r>
       <r>    9.0357    0.0000 </r>
       <r>    9.4330    0.0000 </r>
       <r>    9.4782    0.0000 </r>
       <r>    9.5539    0.0000 </r>
       <r>    9.7784    0.0000 </r>
       <r>   10.0641    0.0000 </r>
       <r>   10.2843    0.0000 </r>
       <r>   10.6712    0.0000 </r>
       <r>   10.7611    0.0000 </r>
       <r>   10.8356    0.0000 </r>
       <r>   11.0043    0.0000 </r>
       <r>   11.7102    0.0000 </r>
       <r>   11.8585    0.0000 </r>
      </set>
      <set comment="kpoint 13">
       <r>  -43.1544    1.0000 </r>
       <r>  -43.1033    1.0000 </r>
       <r>  -42.6183    1.0000 </r>
       <r>  -42.4920    1.0000 </r>
       <r>  -21.9837    1.0000 </r>
       <r>  -21.9169    1.0000 </r>
       <r>  -21.9060    1.0000 </r>
       <r>  -21.8530    1.0000 </r>
       <r>  -21.7977    1.0000 </r>
       <r>  -21.7475    1.0000 </r>
       <r>  -21.5624    1.0000 </r>
       <r>  -21.4622    1.0000 </r>
       <r>  -21.4137    1.0000 </r>
       <r>  -21.3535    1.0000 </r>
       <r>  -21.1641    1.0000 </r>
       <r>  -20.9788    1.0000 </r>
       <r>   -7.8447    1.0000 </r>
       <r>   -7.6077    1.0000 </r>
       <r>   -1.3400    1.0000 </r>
       <r>   -1.0651    1.0000 </r>
       <r>    0.3251    1.0000 </r>
       <r>    0.4746    1.0000 </r>
       <r>    1.6465    1.0000 </r>
       <r>    1.9972    1.0000 </r>
       <r>    2.3949    1.0000 </r>
       <r>    2.8393    1.0000 </r>
       <r>    4.6533    1.0000 </r>
       <r>    5.0553    1.0000 </r>
       <r>    5.5703    1.0001 </r>
       <r>    5.7830   -0.0350 </r>
       <r>    6.0108   -0.0000 </r>
       <r>    6.4022   -0.0000 </r>
       <r>    7.5916    0.0000 </r>
       <r>    7.9053    0.0000 </r>
       <r>    8.1930    0.0000 </r>
       <r>    8.5309    0.0000 </r>
       <r>    8.7859    0.0000 </r>
       <r>    8.9903    0.0000 </r>
       <r>    9.3679    0.0000 </r>
       <r>    9.8357    0.0000 </r>
       <r>   10.1622    0.0000 </r>
       <r>   10.2759    0.0000 </r>
       <r>   10.3985    0.0000 </r>
       <r>   10.6378    0.0000 </r>
       <r>   10.7146    0.0000 </r>
       <r>   11.0503    0.0000 </r>
       <r>   11.4241    0.0000 </r>
       <r>   11.6663    0.0000 </r>
      </set>
      <set comment="kpoint 14">
       <r>  -43.1478    1.0000 </r>
       <r>  -43.1044    1.0000 </r>
       <r>  -42.6056    1.0000 </r>
       <r>  -42.4984    1.0000 </r>
       <r>  -21.9667    1.0000 </r>
       <r>  -21.9533    1.0000 </r>
       <r>  -21.9155    1.0000 </r>
       <r>  -21.8460    1.0000 </r>
       <r>  -21.8242    1.0000 </r>
       <r>  -21.7498    1.0000 </r>
       <r>  -21.5399    1.0000 </r>
       <r>  -21.4956    1.0000 </r>
       <r>  -21.3744    1.0000 </r>
       <r>  -21.3585    1.0000 </r>
       <r>  -21.2337    1.0000 </r>
       <r>  -21.0157    1.0000 </r>
       <r>   -7.7192    1.0000 </r>
       <r>   -7.5247    1.0000 </r>
       <r>   -1.3247    1.0000 </r>
       <r>   -1.0645    1.0000 </r>
       <r>    0.5270    1.0000 </r>
       <r>    0.5643    1.0000 </r>
       <r>    1.7283    1.0000 </r>
       <r>    1.9211    1.0000 </r>
       <r>    2.0796    1.0000 </r>
       <r>    2.6260    1.0000 </r>
       <r>    4.5135    1.0000 </r>
       <r>    4.9665    1.0000 </r>
       <r>    5.4653    1.0000 </r>
       <r>    5.6574    1.0355 </r>
       <r>    5.8080   -0.0151 </r>
       <r>    6.3078   -0.0000 </r>
       <r>    7.3654    0.0000 </r>
       <r>    7.8661    0.0000 </r>
       <r>    8.5618    0.0000 </r>
       <r>    8.7231    0.0000 </r>
       <r>    9.0726    0.0000 </r>
       <r>    9.3025    0.0000 </r>
       <r>    9.6233    0.0000 </r>
       <r>    9.8027    0.0000 </r>
       <r>   10.0418    0.0000 </r>
       <r>   10.3035    0.0000 </r>
       <r>   10.5221    0.0000 </r>
       <r>   10.5983    0.0000 </r>
       <r>   10.8178    0.0000 </r>
       <r>   11.0409    0.0000 </r>
       <r>   11.1697    0.0000 </r>
       <r>   11.6719    0.0000 </r>
      </set>
      <set comment="kpoint 15">
       <r>  -43.1367    1.0000 </r>
       <r>  -43.1077    1.0000 </r>
       <r>  -42.5834    1.0000 </r>
       <r>  -42.5117    1.0000 </r>
       <r>  -22.0104    1.0000 </r>
       <r>  -21.9646    1.0000 </r>
       <r>  -21.9140    1.0000 </r>
       <r>  -21.8484    1.0000 </r>
       <r>  -21.8242    1.0000 </r>
       <r>  -21.7678    1.0000 </r>
       <r>  -21.5562    1.0000 </r>
       <r>  -21.4405    1.0000 </r>
       <r>  -21.4036    1.0000 </r>
       <r>  -21.3375    1.0000 </r>
       <r>  -21.3018    1.0000 </r>
       <r>  -21.0902    1.0000 </r>
       <r>   -7.5352    1.0000 </r>
       <r>   -7.4113    1.0000 </r>
       <r>   -1.2953    1.0000 </r>
       <r>   -1.1012    1.0000 </r>
       <r>    0.5299    1.0000 </r>
       <r>    0.7686    1.0000 </r>
       <r>    1.5518    1.0000 </r>
       <r>    1.8930    1.0000 </r>
       <r>    2.1173    1.0000 </r>
       <r>    2.5869    1.0000 </r>
       <r>    4.4151    1.0000 </r>
       <r>    4.8397    1.0000 </r>
       <r>    5.1372    1.0000 </r>
       <r>    5.2157    1.0000 </r>
       <r>    5.6243    1.0111 </r>
       <r>    5.9543   -0.0000 </r>
       <r>    7.7403    0.0000 </r>
       <r>    7.9764    0.0000 </r>
       <r>    8.9780    0.0000 </r>
       <r>    9.0943    0.0000 </r>
       <r>    9.2616    0.0000 </r>
       <r>    9.5759    0.0000 </r>
       <r>    9.7458    0.0000 </r>
       <r>    9.8223    0.0000 </r>
       <r>   10.0346    0.0000 </r>
       <r>   10.2646    0.0000 </r>
       <r>   10.4241    0.0000 </r>
       <r>   10.5893    0.0000 </r>
       <r>   10.7645    0.0000 </r>
       <r>   10.9448    0.0000 </r>
       <r>   11.4185    0.0000 </r>
       <r>   11.5356    0.0000 </r>
      </set>
      <set comment="kpoint 16">
       <r>  -43.1246    1.0000 </r>
       <r>  -43.1143    1.0000 </r>
       <r>  -42.5570    1.0000 </r>
       <r>  -42.5318    1.0000 </r>
       <r>  -22.0336    1.0000 </r>
       <r>  -22.0167    1.0000 </r>
       <r>  -21.8645    1.0000 </r>
       <r>  -21.8421    1.0000 </r>
       <r>  -21.8253    1.0000 </r>
       <r>  -21.8027    1.0000 </r>
       <r>  -21.5480    1.0000 </r>
       <r>  -21.4902    1.0000 </r>
       <r>  -21.3613    1.0000 </r>
       <r>  -21.3260    1.0000 </r>
       <r>  -21.2874    1.0000 </r>
       <r>  -21.1910    1.0000 </r>
       <r>   -7.3882    1.0000 </r>
       <r>   -7.3462    1.0000 </r>
       <r>   -1.2445    1.0000 </r>
       <r>   -1.1721    1.0000 </r>
       <r>    0.4885    1.0000 </r>
       <r>    0.6124    1.0000 </r>
       <r>    1.7082    1.0000 </r>
       <r>    1.8659    1.0000 </r>
       <r>    2.3767    1.0000 </r>
       <r>    2.5523    1.0000 </r>
       <r>    4.4695    1.0000 </r>
       <r>    4.6874    1.0000 </r>
       <r>    4.8647    1.0000 </r>
       <r>    4.9316    1.0000 </r>
       <r>    5.5369    1.0000 </r>
       <r>    5.6169    1.0070 </r>
       <r>    8.0621    0.0000 </r>
       <r>    8.1450    0.0000 </r>
       <r>    9.2710    0.0000 </r>
       <r>    9.3705    0.0000 </r>
       <r>    9.4380    0.0000 </r>
       <r>    9.5096    0.0000 </r>
       <r>    9.8283    0.0000 </r>
       <r>    9.9854    0.0000 </r>
       <r>   10.0770    0.0000 </r>
       <r>   10.1233    0.0000 </r>
       <r>   10.2227    0.0000 </r>
       <r>   10.3347    0.0000 </r>
       <r>   10.9705    0.0000 </r>
       <r>   11.1756    0.0000 </r>
       <r>   11.2602    0.0000 </r>
       <r>   11.5060    0.0000 </r>
      </set>
      <set comment="kpoint 17">
       <r>  -43.1474    1.0000 </r>
       <r>  -43.1099    1.0000 </r>
       <r>  -42.6017    1.0000 </r>
       <r>  -42.5092    1.0000 </r>
       <r>  -21.9896    1.0000 </r>
       <r>  -21.9307    1.0000 </r>
       <r>  -21.8970    1.0000 </r>
       <r>  -21.8314    1.0000 </r>
       <r>  -21.8128    1.0000 </r>
       <r>  -21.7420    1.0000 </r>
       <r>  -21.5289    1.0000 </r>
       <r>  -21.4295    1.0000 </r>
       <r>  -21.3700    1.0000 </r>
       <r>  -21.3640    1.0000 </r>
       <r>  -21.2103    1.0000 </r>
       <r>  -21.0470    1.0000 </r>
       <r>   -7.7497    1.0000 </r>
       <r>   -7.5744    1.0000 </r>
       <r>   -1.9019    1.0000 </r>
       <r>   -1.7754    1.0000 </r>
       <r>    0.8447    1.0000 </r>
       <r>    1.2162    1.0000 </r>
       <r>    2.2411    1.0000 </r>
       <r>    2.2804    1.0000 </r>
       <r>    2.4084    1.0000 </r>
       <r>    2.6804    1.0000 </r>
       <r>    4.4901    1.0000 </r>
       <r>    5.1357    1.0000 </r>
       <r>    5.2276    1.0000 </r>
       <r>    5.8752   -0.0000 </r>
       <r>    6.1869   -0.0000 </r>
       <r>    6.8415   -0.0000 </r>
       <r>    7.5748    0.0000 </r>
       <r>    7.8575    0.0000 </r>
       <r>    8.1139    0.0000 </r>
       <r>    8.3907    0.0000 </r>
       <r>    8.5243    0.0000 </r>
       <r>    9.1364    0.0000 </r>
       <r>    9.5806    0.0000 </r>
       <r>    9.7623    0.0000 </r>
       <r>    9.8391    0.0000 </r>
       <r>   10.0523    0.0000 </r>
       <r>   10.2041    0.0000 </r>
       <r>   10.7006    0.0000 </r>
       <r>   10.8376    0.0000 </r>
       <r>   11.1865    0.0000 </r>
       <r>   11.4235    0.0000 </r>
       <r>   11.5332    0.0000 </r>
      </set>
      <set comment="kpoint 18">
       <r>  -43.1418    1.0000 </r>
       <r>  -43.1100    1.0000 </r>
       <r>  -42.5915    1.0000 </r>
       <r>  -42.5130    1.0000 </r>
       <r>  -21.9815    1.0000 </r>
       <r>  -21.9429    1.0000 </r>
       <r>  -21.9368    1.0000 </r>
       <r>  -21.8525    1.0000 </r>
       <r>  -21.8094    1.0000 </r>
       <r>  -21.7389    1.0000 </r>
       <r>  -21.5533    1.0000 </r>
       <r>  -21.4504    1.0000 </r>
       <r>  -21.3779    1.0000 </r>
       <r>  -21.3045    1.0000 </r>
       <r>  -21.2996    1.0000 </r>
       <r>  -21.0334    1.0000 </r>
       <r>   -7.6455    1.0000 </r>
       <r>   -7.5022    1.0000 </r>
       <r>   -1.8182    1.0000 </r>
       <r>   -1.6598    1.0000 </r>
       <r>    1.0236    1.0000 </r>
       <r>    1.1925    1.0000 </r>
       <r>    2.0632    1.0000 </r>
       <r>    2.2075    1.0000 </r>
       <r>    2.3500    1.0000 </r>
       <r>    2.4409    1.0000 </r>
       <r>    4.4799    1.0000 </r>
       <r>    4.8864    1.0000 </r>
       <r>    5.2713    1.0000 </r>
       <r>    5.3510    1.0000 </r>
       <r>    6.2283   -0.0000 </r>
       <r>    6.6618   -0.0000 </r>
       <r>    7.2690    0.0000 </r>
       <r>    8.1144    0.0000 </r>
       <r>    8.2436    0.0000 </r>
       <r>    8.5989    0.0000 </r>
       <r>    8.7777    0.0000 </r>
       <r>    9.4400    0.0000 </r>
       <r>    9.5938    0.0000 </r>
       <r>    9.6841    0.0000 </r>
       <r>    9.8819    0.0000 </r>
       <r>   10.2171    0.0000 </r>
       <r>   10.4137    0.0000 </r>
       <r>   10.4934    0.0000 </r>
       <r>   10.7544    0.0000 </r>
       <r>   10.9810    0.0000 </r>
       <r>   11.5139    0.0000 </r>
       <r>   11.6886    0.0000 </r>
      </set>
      <set comment="kpoint 19">
       <r>  -43.1326    1.0000 </r>
       <r>  -43.1114    1.0000 </r>
       <r>  -42.5740    1.0000 </r>
       <r>  -42.5214    1.0000 </r>
       <r>  -22.0181    1.0000 </r>
       <r>  -21.9906    1.0000 </r>
       <r>  -21.9182    1.0000 </r>
       <r>  -21.8669    1.0000 </r>
       <r>  -21.8028    1.0000 </r>
       <r>  -21.7527    1.0000 </r>
       <r>  -21.5957    1.0000 </r>
       <r>  -21.4606    1.0000 </r>
       <r>  -21.4152    1.0000 </r>
       <r>  -21.3438    1.0000 </r>
       <r>  -21.2397    1.0000 </r>
       <r>  -21.0552    1.0000 </r>
       <r>   -7.4950    1.0000 </r>
       <r>   -7.4041    1.0000 </r>
       <r>   -1.6914    1.0000 </r>
       <r>   -1.5193    1.0000 </r>
       <r>    1.0160    1.0000 </r>
       <r>    1.0960    1.0000 </r>
       <r>    1.9340    1.0000 </r>
       <r>    2.1126    1.0000 </r>
       <r>    2.3524    1.0000 </r>
       <r>    2.4785    1.0000 </r>
       <r>    4.4796    1.0000 </r>
       <r>    4.6053    1.0000 </r>
       <r>    4.7840    1.0000 </r>
       <r>    5.1733    1.0000 </r>
       <r>    5.9747   -0.0000 </r>
       <r>    6.2896   -0.0000 </r>
       <r>    7.7379    0.0000 </r>
       <r>    8.0816    0.0000 </r>
       <r>    8.5387    0.0000 </r>
       <r>    8.8630    0.0000 </r>
       <r>    8.9120    0.0000 </r>
       <r>    9.2949    0.0000 </r>
       <r>    9.6127    0.0000 </r>
       <r>    9.7183    0.0000 </r>
       <r>   10.0485    0.0000 </r>
       <r>   10.2812    0.0000 </r>
       <r>   10.5832    0.0000 </r>
       <r>   10.6825    0.0000 </r>
       <r>   10.7478    0.0000 </r>
       <r>   11.1192    0.0000 </r>
       <r>   11.4810    0.0000 </r>
       <r>   11.7392    0.0000 </r>
      </set>
      <set comment="kpoint 20">
       <r>  -43.1230    1.0000 </r>
       <r>  -43.1155    1.0000 </r>
       <r>  -42.5537    1.0000 </r>
       <r>  -42.5353    1.0000 </r>
       <r>  -22.0465    1.0000 </r>
       <r>  -22.0363    1.0000 </r>
       <r>  -21.8854    1.0000 </r>
       <r>  -21.8706    1.0000 </r>
       <r>  -21.7993    1.0000 </r>
       <r>  -21.7788    1.0000 </r>
       <r>  -21.5998    1.0000 </r>
       <r>  -21.5528    1.0000 </r>
       <r>  -21.3766    1.0000 </r>
       <r>  -21.3535    1.0000 </r>
       <r>  -21.1755    1.0000 </r>
       <r>  -21.1087    1.0000 </r>
       <r>   -7.3774    1.0000 </r>
       <r>   -7.3465    1.0000 </r>
       <r>   -1.5586    1.0000 </r>
       <r>   -1.4777    1.0000 </r>
       <r>    0.8578    1.0000 </r>
       <r>    0.9125    1.0000 </r>
       <r>    2.0912    1.0000 </r>
       <r>    2.2590    1.0000 </r>
       <r>    2.3144    1.0000 </r>
       <r>    2.4815    1.0000 </r>
       <r>    4.4013    1.0000 </r>
       <r>    4.4652    1.0000 </r>
       <r>    4.6427    1.0000 </r>
       <r>    4.8728    1.0000 </r>
       <r>    5.8880   -0.0000 </r>
       <r>    5.9752   -0.0000 </r>
       <r>    8.0117    0.0000 </r>
       <r>    8.2514    0.0000 </r>
       <r>    8.5319    0.0000 </r>
       <r>    8.9678    0.0000 </r>
       <r>    9.2136    0.0000 </r>
       <r>    9.3068    0.0000 </r>
       <r>    9.6968    0.0000 </r>
       <r>    9.7712    0.0000 </r>
       <r>   10.1002    0.0000 </r>
       <r>   10.2137    0.0000 </r>
       <r>   10.5926    0.0000 </r>
       <r>   10.6218    0.0000 </r>
       <r>   10.9308    0.0000 </r>
       <r>   11.1390    0.0000 </r>
       <r>   11.6036    0.0000 </r>
       <r>   11.7867    0.0000 </r>
      </set>
      <set comment="kpoint 21">
       <r>  -43.1353    1.0000 </r>
       <r>  -43.1215    1.0000 </r>
       <r>  -42.5727    1.0000 </r>
       <r>  -42.5388    1.0000 </r>
       <r>  -21.9818    1.0000 </r>
       <r>  -21.9574    1.0000 </r>
       <r>  -21.8706    1.0000 </r>
       <r>  -21.8401    1.0000 </r>
       <r>  -21.7991    1.0000 </r>
       <r>  -21.7671    1.0000 </r>
       <r>  -21.4498    1.0000 </r>
       <r>  -21.3989    1.0000 </r>
       <r>  -21.3747    1.0000 </r>
       <r>  -21.2901    1.0000 </r>
       <r>  -21.2770    1.0000 </r>
       <r>  -21.1598    1.0000 </r>
       <r>   -7.6271    1.0000 </r>
       <r>   -7.5622    1.0000 </r>
       <r>   -2.2834    1.0000 </r>
       <r>   -2.2449    1.0000 </r>
       <r>    1.3056    1.0000 </r>
       <r>    1.5417    1.0000 </r>
       <r>    2.4068    1.0000 </r>
       <r>    2.5036    1.0000 </r>
       <r>    2.7768    1.0000 </r>
       <r>    2.9080    1.0000 </r>
       <r>    4.3557    1.0000 </r>
       <r>    4.6265    1.0000 </r>
       <r>    5.4788    1.0000 </r>
       <r>    5.7804   -0.0355 </r>
       <r>    6.6209   -0.0000 </r>
       <r>    7.1092    0.0000 </r>
       <r>    7.4517    0.0000 </r>
       <r>    7.9684    0.0000 </r>
       <r>    8.1506    0.0000 </r>
       <r>    8.3498    0.0000 </r>
       <r>    8.5234    0.0000 </r>
       <r>    8.6561    0.0000 </r>
       <r>    9.3909    0.0000 </r>
       <r>    9.5367    0.0000 </r>
       <r>    9.5760    0.0000 </r>
       <r>    9.8244    0.0000 </r>
       <r>   10.5700    0.0000 </r>
       <r>   10.7272    0.0000 </r>
       <r>   10.8950    0.0000 </r>
       <r>   11.1772    0.0000 </r>
       <r>   11.4003    0.0000 </r>
       <r>   11.5747    0.0000 </r>
      </set>
      <set comment="kpoint 22">
       <r>  -43.1315    1.0000 </r>
       <r>  -43.1198    1.0000 </r>
       <r>  -42.5669    1.0000 </r>
       <r>  -42.5381    1.0000 </r>
       <r>  -21.9843    1.0000 </r>
       <r>  -21.9692    1.0000 </r>
       <r>  -21.9108    1.0000 </r>
       <r>  -21.8802    1.0000 </r>
       <r>  -21.7801    1.0000 </r>
       <r>  -21.7525    1.0000 </r>
       <r>  -21.5109    1.0000 </r>
       <r>  -21.4337    1.0000 </r>
       <r>  -21.4083    1.0000 </r>
       <r>  -21.3714    1.0000 </r>
       <r>  -21.1935    1.0000 </r>
       <r>  -21.0943    1.0000 </r>
       <r>   -7.5503    1.0000 </r>
       <r>   -7.4975    1.0000 </r>
       <r>   -2.1435    1.0000 </r>
       <r>   -2.0901    1.0000 </r>
       <r>    1.4881    1.0000 </r>
       <r>    1.6572    1.0000 </r>
       <r>    2.0281    1.0000 </r>
       <r>    2.1134    1.0000 </r>
       <r>    2.7580    1.0000 </r>
       <r>    2.8608    1.0000 </r>
       <r>    4.4497    1.0000 </r>
       <r>    4.7307    1.0000 </r>
       <r>    5.0486    1.0000 </r>
       <r>    5.2189    1.0000 </r>
       <r>    6.7792   -0.0000 </r>
       <r>    6.9891   -0.0000 </r>
       <r>    7.2626    0.0000 </r>
       <r>    7.9157    0.0000 </r>
       <r>    8.0196    0.0000 </r>
       <r>    8.4857    0.0000 </r>
       <r>    8.6791    0.0000 </r>
       <r>    8.8569    0.0000 </r>
       <r>    9.5901    0.0000 </r>
       <r>    9.7448    0.0000 </r>
       <r>    9.8888    0.0000 </r>
       <r>   10.0740    0.0000 </r>
       <r>   10.3659    0.0000 </r>
       <r>   10.4461    0.0000 </r>
       <r>   10.9104    0.0000 </r>
       <r>   11.0984    0.0000 </r>
       <r>   11.5061    0.0000 </r>
       <r>   11.5663    0.0000 </r>
      </set>
      <set comment="kpoint 23">
       <r>  -43.1257    1.0000 </r>
       <r>  -43.1179    1.0000 </r>
       <r>  -42.5575    1.0000 </r>
       <r>  -42.5382    1.0000 </r>
       <r>  -22.0216    1.0000 </r>
       <r>  -22.0125    1.0000 </r>
       <r>  -21.9143    1.0000 </r>
       <r>  -21.8965    1.0000 </r>
       <r>  -21.7758    1.0000 </r>
       <r>  -21.7533    1.0000 </r>
       <r>  -21.5909    1.0000 </r>
       <r>  -21.5385    1.0000 </r>
       <r>  -21.3912    1.0000 </r>
       <r>  -21.3692    1.0000 </r>
       <r>  -21.1321    1.0000 </r>
       <r>  -21.0638    1.0000 </r>
       <r>   -7.4420    1.0000 </r>
       <r>   -7.4087    1.0000 </r>
       <r>   -1.9387    1.0000 </r>
       <r>   -1.8707    1.0000 </r>
       <r>    1.4635    1.0000 </r>
       <r>    1.4985    1.0000 </r>
       <r>    1.9388    1.0000 </r>
       <r>    1.9949    1.0000 </r>
       <r>    2.7113    1.0000 </r>
       <r>    2.7636    1.0000 </r>
       <r>    4.4310    1.0000 </r>
       <r>    4.5081    1.0000 </r>
       <r>    4.7074    1.0000 </r>
       <r>    4.9821    1.0000 </r>
       <r>    6.4235   -0.0000 </r>
       <r>    6.6557   -0.0000 </r>
       <r>    7.3602    0.0000 </r>
       <r>    7.7312    0.0000 </r>
       <r>    8.5476    0.0000 </r>
       <r>    8.6404    0.0000 </r>
       <r>    8.8836    0.0000 </r>
       <r>    9.1044    0.0000 </r>
       <r>    9.4932    0.0000 </r>
       <r>    9.7174    0.0000 </r>
       <r>    9.8457    0.0000 </r>
       <r>   10.0955    0.0000 </r>
       <r>   10.6486    0.0000 </r>
       <r>   10.7076    0.0000 </r>
       <r>   10.9867    0.0000 </r>
       <r>   11.1904    0.0000 </r>
       <r>   11.6589    0.0000 </r>
       <r>   11.9697    0.0000 </r>
      </set>
      <set comment="kpoint 24">
       <r>  -43.1204    1.0000 </r>
       <r>  -43.1177    1.0000 </r>
       <r>  -42.5479    1.0000 </r>
       <r>  -42.5412    1.0000 </r>
       <r>  -22.0550    1.0000 </r>
       <r>  -22.0517    1.0000 </r>
       <r>  -21.9074    1.0000 </r>
       <r>  -21.9031    1.0000 </r>
       <r>  -21.7730    1.0000 </r>
       <r>  -21.7625    1.0000 </r>
       <r>  -21.6257    1.0000 </r>
       <r>  -21.6076    1.0000 </r>
       <r>  -21.3725    1.0000 </r>
       <r>  -21.3649    1.0000 </r>
       <r>  -21.0899    1.0000 </r>
       <r>  -21.0654    1.0000 </r>
       <r>   -7.3624    1.0000 </r>
       <r>   -7.3511    1.0000 </r>
       <r>   -1.7702    1.0000 </r>
       <r>   -1.7354    1.0000 </r>
       <r>    1.2471    1.0000 </r>
       <r>    1.2677    1.0000 </r>
       <r>    2.0456    1.0000 </r>
       <r>    2.0878    1.0000 </r>
       <r>    2.7150    1.0000 </r>
       <r>    2.7474    1.0000 </r>
       <r>    4.2435    1.0000 </r>
       <r>    4.2565    1.0000 </r>
       <r>    4.7142    1.0000 </r>
       <r>    4.8353    1.0000 </r>
       <r>    6.2798   -0.0000 </r>
       <r>    6.3573   -0.0000 </r>
       <r>    7.4294    0.0000 </r>
       <r>    7.5670    0.0000 </r>
       <r>    8.8794    0.0000 </r>
       <r>    9.0620    0.0000 </r>
       <r>    9.2057    0.0000 </r>
       <r>    9.3706    0.0000 </r>
       <r>    9.4860    0.0000 </r>
       <r>    9.5409    0.0000 </r>
       <r>    9.7527    0.0000 </r>
       <r>    9.8587    0.0000 </r>
       <r>   10.9124    0.0000 </r>
       <r>   10.9904    0.0000 </r>
       <r>   11.0209    0.0000 </r>
       <r>   11.1866    0.0000 </r>
       <r>   12.0182    0.0000 </r>
       <r>   12.1908    0.0000 </r>
      </set>
     </set>
    </set>
   </array>
  </eigenvalues>
  <separator name="orbital magnetization" >
   <v name="MAGDIPOLOUT">      0.00000000      0.00000000      0.00000000</v>
  </separator>
  <dos>
   <i name="efermi">      5.71888444 </i>
   <total>
    <array>
     <dimension dim="1">gridpoints</dimension>
     <dimension dim="2">spin</dimension>
     <field>energy</field>
     <field>total</field>
     <field>integrated</field>
     <set>
      <set comment="spin 1">
       <r>   -45.9228     0.0000     0.0000 </r>
       <r>   -45.7198     0.0000     0.0000 </r>
       <r>   -45.5169     0.0000     0.0000 </r>
       <r>   -45.3140     0.0000     0.0000 </r>
       <r>   -45.1110     0.0000     0.0000 </r>
       <r>   -44.9081     0.0000     0.0000 </r>
       <r>   -44.7052     0.0000     0.0000 </r>
       <r>   -44.5022     0.0000     0.0000 </r>
       <r>   -44.2993     0.0000     0.0000 </r>
       <r>   -44.0964     0.0000     0.0000 </r>
       <r>   -43.8934     0.0000     0.0000 </r>
       <r>   -43.6905    -0.0000    -0.0000 </r>
       <r>   -43.4876    -0.0000    -0.0000 </r>
       <r>   -43.2846    -0.0019    -0.0004 </r>
       <r>   -43.0817    19.1349     3.8828 </r>
       <r>   -42.8787     0.5777     4.0000 </r>
       <r>   -42.6758    -0.1253     3.9746 </r>
       <r>   -42.4729    19.8104     7.9948 </r>
       <r>   -42.2699     0.0255     8.0000 </r>
       <r>   -42.0670     0.0000     8.0000 </r>
       <r>   -41.8641     0.0000     8.0000 </r>
       <r>   -41.6611     0.0000     8.0000 </r>
       <r>   -41.4582     0.0000     8.0000 </r>
       <r>   -41.2553     0.0000     8.0000 </r>
       <r>   -41.0523     0.0000     8.0000 </r>
       <r>   -40.8494     0.0000     8.0000 </r>
       <r>   -40.6464     0.0000     8.0000 </r>
       <r>   -40.4435     0.0000     8.0000 </r>
       <r>   -40.2406     0.0000     8.0000 </r>
       <r>   -40.0376     0.0000     8.0000 </r>
       <r>   -39.8347     0.0000     8.0000 </r>
       <r>   -39.6318     0.0000     8.0000 </r>
       <r>   -39.4288     0.0000     8.0000 </r>
       <r>   -39.2259     0.0000     8.0000 </r>
       <r>   -39.0230     0.0000     8.0000 </r>
       <r>   -38.8200     0.0000     8.0000 </r>
       <r>   -38.6171     0.0000     8.0000 </r>
       <r>   -38.4141     0.0000     8.0000 </r>
       <r>   -38.2112     0.0000     8.0000 </r>
       <r>   -38.0083     0.0000     8.0000 </r>
       <r>   -37.8053     0.0000     8.0000 </r>
       <r>   -37.6024     0.0000     8.0000 </r>
       <r>   -37.3995     0.0000     8.0000 </r>
       <r>   -37.1965     0.0000     8.0000 </r>
       <r>   -36.9936     0.0000     8.0000 </r>
       <r>   -36.7907     0.0000     8.0000 </r>
       <r>   -36.5877     0.0000     8.0000 </r>
       <r>   -36.3848     0.0000     8.0000 </r>
       <r>   -36.1818     0.0000     8.0000 </r>
       <r>   -35.9789     0.0000     8.0000 </r>
       <r>   -35.7760     0.0000     8.0000 </r>
       <r>   -35.5730     0.0000     8.0000 </r>
       <r>   -35.3701     0.0000     8.0000 </r>
       <r>   -35.1672     0.0000     8.0000 </r>
       <r>   -34.9642     0.0000     8.0000 </r>
       <r>   -34.7613     0.0000     8.0000 </r>
       <r>   -34.5584     0.0000     8.0000 </r>
       <r>   -34.3554     0.0000     8.0000 </r>
       <r>   -34.1525     0.0000     8.0000 </r>
       <r>   -33.9496     0.0000     8.0000 </r>
       <r>   -33.7466     0.0000     8.0000 </r>
       <r>   -33.5437     0.0000     8.0000 </r>
       <r>   -33.3407     0.0000     8.0000 </r>
       <r>   -33.1378     0.0000     8.0000 </r>
       <r>   -32.9349     0.0000     8.0000 </r>
       <r>   -32.7319     0.0000     8.0000 </r>
       <r>   -32.5290     0.0000     8.0000 </r>
       <r>   -32.3261     0.0000     8.0000 </r>
       <r>   -32.1231     0.0000     8.0000 </r>
       <r>   -31.9202     0.0000     8.0000 </r>
       <r>   -31.7173     0.0000     8.0000 </r>
       <r>   -31.5143     0.0000     8.0000 </r>
       <r>   -31.3114     0.0000     8.0000 </r>
       <r>   -31.1084     0.0000     8.0000 </r>
       <r>   -30.9055     0.0000     8.0000 </r>
       <r>   -30.7026     0.0000     8.0000 </r>
       <r>   -30.4996     0.0000     8.0000 </r>
       <r>   -30.2967     0.0000     8.0000 </r>
       <r>   -30.0938     0.0000     8.0000 </r>
       <r>   -29.8908     0.0000     8.0000 </r>
       <r>   -29.6879     0.0000     8.0000 </r>
       <r>   -29.4850     0.0000     8.0000 </r>
       <r>   -29.2820     0.0000     8.0000 </r>
       <r>   -29.0791     0.0000     8.0000 </r>
       <r>   -28.8761     0.0000     8.0000 </r>
       <r>   -28.6732     0.0000     8.0000 </r>
       <r>   -28.4703     0.0000     8.0000 </r>
       <r>   -28.2673     0.0000     8.0000 </r>
       <r>   -28.0644     0.0000     8.0000 </r>
       <r>   -27.8615     0.0000     8.0000 </r>
       <r>   -27.6585     0.0000     8.0000 </r>
       <r>   -27.4556     0.0000     8.0000 </r>
       <r>   -27.2527     0.0000     8.0000 </r>
       <r>   -27.0497     0.0000     8.0000 </r>
       <r>   -26.8468     0.0000     8.0000 </r>
       <r>   -26.6438     0.0000     8.0000 </r>
       <r>   -26.4409     0.0000     8.0000 </r>
       <r>   -26.2380     0.0000     8.0000 </r>
       <r>   -26.0350     0.0000     8.0000 </r>
       <r>   -25.8321     0.0000     8.0000 </r>
       <r>   -25.6292     0.0000     8.0000 </r>
       <r>   -25.4262     0.0000     8.0000 </r>
       <r>   -25.2233     0.0000     8.0000 </r>
       <r>   -25.0204     0.0000     8.0000 </r>
       <r>   -24.8174     0.0000     8.0000 </r>
       <r>   -24.6145     0.0000     8.0000 </r>
       <r>   -24.4116     0.0000     8.0000 </r>
       <r>   -24.2086     0.0000     8.0000 </r>
       <r>   -24.0057     0.0000     8.0000 </r>
       <r>   -23.8027     0.0000     8.0000 </r>
       <r>   -23.5998     0.0000     8.0000 </r>
       <r>   -23.3969     0.0000     8.0000 </r>
       <r>   -23.1939     0.0000     8.0000 </r>
       <r>   -22.9910     0.0000     8.0000 </r>
       <r>   -22.7881     0.0000     8.0000 </r>
       <r>   -22.5851    -0.0000     8.0000 </r>
       <r>   -22.3822    -0.0000     8.0000 </r>
       <r>   -22.1793    -0.0018     7.9996 </r>
       <r>   -21.9763    12.9472    10.6271 </r>
       <r>   -21.7734    37.9708    18.3327 </r>
       <r>   -21.5704    13.5179    21.0760 </r>
       <r>   -21.3675    23.8775    25.9216 </r>
       <r>   -21.1646    18.7744    29.7316 </r>
       <r>   -20.9616    11.0789    31.9799 </r>
       <r>   -20.7587     0.0989    32.0000 </r>
       <r>   -20.5558     0.0000    32.0000 </r>
       <r>   -20.3528     0.0000    32.0000 </r>
       <r>   -20.1499     0.0000    32.0000 </r>
       <r>   -19.9470     0.0000    32.0000 </r>
       <r>   -19.7440     0.0000    32.0000 </r>
       <r>   -19.5411     0.0000    32.0000 </r>
       <r>   -19.3381     0.0000    32.0000 </r>
       <r>   -19.1352     0.0000    32.0000 </r>
       <r>   -18.9323     0.0000    32.0000 </r>
       <r>   -18.7293     0.0000    32.0000 </r>
       <r>   -18.5264     0.0000    32.0000 </r>
       <r>   -18.3235     0.0000    32.0000 </r>
       <r>   -18.1205     0.0000    32.0000 </r>
       <r>   -17.9176     0.0000    32.0000 </r>
       <r>   -17.7147     0.0000    32.0000 </r>
       <r>   -17.5117     0.0000    32.0000 </r>
       <r>   -17.3088     0.0000    32.0000 </r>
       <r>   -17.1058     0.0000    32.0000 </r>
       <r>   -16.9029     0.0000    32.0000 </r>
       <r>   -16.7000     0.0000    32.0000 </r>
       <r>   -16.4970     0.0000    32.0000 </r>
       <r>   -16.2941     0.0000    32.0000 </r>
       <r>   -16.0912     0.0000    32.0000 </r>
       <r>   -15.8882     0.0000    32.0000 </r>
       <r>   -15.6853     0.0000    32.0000 </r>
       <r>   -15.4824     0.0000    32.0000 </r>
       <r>   -15.2794     0.0000    32.0000 </r>
       <r>   -15.0765     0.0000    32.0000 </r>
       <r>   -14.8736     0.0000    32.0000 </r>
       <r>   -14.6706     0.0000    32.0000 </r>
       <r>   -14.4677     0.0000    32.0000 </r>
       <r>   -14.2647     0.0000    32.0000 </r>
       <r>   -14.0618     0.0000    32.0000 </r>
       <r>   -13.8589     0.0000    32.0000 </r>
       <r>   -13.6559     0.0000    32.0000 </r>
       <r>   -13.4530     0.0000    32.0000 </r>
       <r>   -13.2501     0.0000    32.0000 </r>
       <r>   -13.0471     0.0000    32.0000 </r>
       <r>   -12.8442     0.0000    32.0000 </r>
       <r>   -12.6413     0.0000    32.0000 </r>
       <r>   -12.4383     0.0000    32.0000 </r>
       <r>   -12.2354     0.0000    32.0000 </r>
       <r>   -12.0324     0.0000    32.0000 </r>
       <r>   -11.8295     0.0000    32.0000 </r>
       <r>   -11.6266     0.0000    32.0000 </r>
       <r>   -11.4236     0.0000    32.0000 </r>
       <r>   -11.2207     0.0000    32.0000 </r>
       <r>   -11.0178     0.0000    32.0000 </r>
       <r>   -10.8148     0.0000    32.0000 </r>
       <r>   -10.6119     0.0000    32.0000 </r>
       <r>   -10.4090     0.0000    32.0000 </r>
       <r>   -10.2060     0.0000    32.0000 </r>
       <r>   -10.0031     0.0000    32.0000 </r>
       <r>    -9.8001     0.0000    32.0000 </r>
       <r>    -9.5972     0.0000    32.0000 </r>
       <r>    -9.3943     0.0000    32.0000 </r>
       <r>    -9.1913     0.0000    32.0000 </r>
       <r>    -8.9884     0.0000    32.0000 </r>
       <r>    -8.7855     0.0000    32.0000 </r>
       <r>    -8.5825    -0.0000    32.0000 </r>
       <r>    -8.3796    -0.0000    32.0000 </r>
       <r>    -8.1767    -0.0000    32.0000 </r>
       <r>    -7.9737     0.4118    32.0836 </r>
       <r>    -7.7708     1.4261    32.3730 </r>
       <r>    -7.5679     4.2190    33.2292 </r>
       <r>    -7.3649    10.0995    35.2787 </r>
       <r>    -7.1620     3.5542    36.0000 </r>
       <r>    -6.9590    -0.0000    36.0000 </r>
       <r>    -6.7561     0.0000    36.0000 </r>
       <r>    -6.5532     0.0000    36.0000 </r>
       <r>    -6.3502     0.0000    36.0000 </r>
       <r>    -6.1473     0.0000    36.0000 </r>
       <r>    -5.9444     0.0000    36.0000 </r>
       <r>    -5.7414     0.0000    36.0000 </r>
       <r>    -5.5385     0.0000    36.0000 </r>
       <r>    -5.3356     0.0000    36.0000 </r>
       <r>    -5.1326     0.0000    36.0000 </r>
       <r>    -4.9297     0.0000    36.0000 </r>
       <r>    -4.7267     0.0000    36.0000 </r>
       <r>    -4.5238     0.0000    36.0000 </r>
       <r>    -4.3209     0.0000    36.0000 </r>
       <r>    -4.1179     0.0000    36.0000 </r>
       <r>    -3.9150     0.0000    36.0000 </r>
       <r>    -3.7121     0.0000    36.0000 </r>
       <r>    -3.5091     0.0000    36.0000 </r>
       <r>    -3.3062     0.0000    36.0000 </r>
       <r>    -3.1033     0.0000    36.0000 </r>
       <r>    -2.9003     0.0000    36.0000 </r>
[...]
        <r>  0.0001  0.0057  0.0006  0.0210  0.0006  0.0039  0.0021  0.0084  0.0005 </r>
        <r>  0.0214  0.0024  0.0063  0.0001  0.0243  0.0003  0.0174  0.0013  0.0023 </r>
        <r>  0.0001  0.0049  0.0750  0.0035  0.0000  0.0000  0.0000  0.0000  0.0000 </r>
        <r>  0.0001  0.0050  0.0725  0.0062  0.0000  0.0000  0.0000  0.0000  0.0000 </r>
        <r>  0.0001  0.0050  0.0725  0.0062  0.0000  0.0000  0.0000  0.0000  0.0000 </r>
        <r>  0.0001  0.0049  0.0750  0.0035  0.0000  0.0000  0.0000  0.0000  0.0000 </r>
       </set>
       <set comment="band 25">
        <r>  0.0006  0.0002  0.0011  0.0012  0.0380  0.0004  0.0097  0.0014  0.0032 </r>
        <r>  0.0013  0.0031  0.0013  0.0020  0.0000  0.0372  0.0001  0.0003  0.0007 </r>
        <r>  0.0013  0.0031  0.0013  0.0020  0.0000  0.0372  0.0001  0.0003  0.0007 </r>
        <r>  0.0006  0.0002  0.0011  0.0012  0.0380  0.0004  0.0097  0.0014  0.0032 </r>
        <r>  0.0043  0.0915  0.0065  0.0046  0.0000  0.0000  0.0000  0.0000  0.0000 </r>
        <r>  0.0039  0.0909  0.0071  0.0012  0.0000  0.0000  0.0000  0.0000  0.0000 </r>
        <r>  0.0039  0.0909  0.0071  0.0012  0.0000  0.0000  0.0000  0.0000  0.0000 </r>
        <r>  0.0043  0.0915  0.0065  0.0046  0.0000  0.0000  0.0000  0.0000  0.0000 </r>
       </set>
       <set comment="band 26">
        <r>  0.0003  0.0003  0.0022  0.0008  0.0320  0.0005  0.0121  0.0012  0.0019 </r>
        <r>  0.0000  0.0045  0.0011  0.0029  0.0009  0.0380  0.0021  0.0006  0.0001 </r>
        <r>  0.0000  0.0045  0.0011  0.0029  0.0009  0.0380  0.0021  0.0006  0.0001 </r>
        <r>  0.0003  0.0003  0.0022  0.0008  0.0320  0.0005  0.0121  0.0012  0.0019 </r>
        <r>  0.0039  0.0878  0.0115  0.0024  0.0000  0.0000  0.0000  0.0000  0.0000 </r>
        <r>  0.0041  0.0881  0.0123  0.0016  0.0000  0.0000  0.0000  0.0000  0.0000 </r>
        <r>  0.0041  0.0881  0.0123  0.0016  0.0000  0.0000  0.0000  0.0000  0.0000 </r>
        <r>  0.0039  0.0878  0.0115  0.0024  0.0000  0.0000  0.0000  0.0000  0.0000 </r>
       </set>
       <set comment="band 27">
        <r>  0.0235  0.0010  0.0181  0.0001  0.0053  0.0042  0.0004  0.0008  0.0032 </r>
        <r>  0.0001  0.0203  0.0002  0.0068  0.0101  0.0365  0.0000  0.0357  0.0004 </r>
        <r>  0.0001  0.0203  0.0002  0.0068  0.0101  0.0365  0.0000  0.0357  0.0004 </r>
        <r>  0.0235  0.0010  0.0181  0.0001  0.0053  0.0042  0.0004  0.0008  0.0032 </r>
        <r>  0.0023  0.0067  0.0023  0.0379  0.0000  0.0000  0.0000  0.0000  0.0000 </r>
        <r>  0.0016  0.0061  0.0080  0.0415  0.0000  0.0000  0.0000  0.0000  0.0000 </r>
        <r>  0.0016  0.0061  0.0080  0.0415  0.0000  0.0000  0.0000  0.0000  0.0000 </r>
        <r>  0.0023  0.0067  0.0023  0.0379  0.0000  0.0000  0.0000  0.0000  0.0000 </r>
       </set>
       <set comment="band 28">
        <r>  0.0215  0.0010  0.0174  0.0003  0.0044  0.0084  0.0003  0.0026  0.0036 </r>
        <r>  0.0003  0.0169  0.0006  0.0062  0.0041  0.0389  0.0004  0.0395  0.0030 </r>
        <r>  0.0003  0.0169  0.0006  0.0062  0.0041  0.0389  0.0004  0.0395  0.0030 </r>
        <r>  0.0215  0.0010  0.0174  0.0003  0.0044  0.0084  0.0003  0.0026  0.0036 </r>
        <r>  0.0016  0.0070  0.0116  0.0392  0.0000  0.0000  0.0000  0.0000  0.0000 </r>
        <r>  0.0022  0.0075  0.0019  0.0367  0.0000  0.0000  0.0000  0.0000  0.0000 </r>
        <r>  0.0022  0.0075  0.0019  0.0367  0.0000  0.0000  0.0000  0.0000  0.0000 </r>
        <r>  0.0016  0.0070  0.0116  0.0392  0.0000  0.0000  0.0000  0.0000  0.0000 </r>
       </set>
       <set comment="band 29">
        <r>  0.0003  0.0035  0.0004  0.0093  0.0035  0.0615  0.0039  0.0048  0.0003 </r>
        <r>  0.0089  0.0002  0.0065  0.0003  0.0720  0.0077  0.0089  0.0004  0.0191 </r>
        <r>  0.0089  0.0002  0.0065  0.0003  0.0720  0.0077  0.0089  0.0004  0.0191 </r>
        <r>  0.0003  0.0035  0.0004  0.0093  0.0035  0.0615  0.0039  0.0048  0.0003 </r>
        <r>  0.0004  0.0009  0.0449  0.0030  0.0000  0.0000  0.0000  0.0000  0.0000 </r>
        <r>  0.0002  0.0003  0.0506  0.0047  0.0000  0.0000  0.0000  0.0000  0.0000 </r>
        <r>  0.0002  0.0003  0.0506  0.0047  0.0000  0.0000  0.0000  0.0000  0.0000 </r>
        <r>  0.0004  0.0009  0.0449  0.0030  0.0000  0.0000  0.0000  0.0000  0.0000 </r>
       </set>
       <set comment="band 30">
        <r>  0.0004  0.0040  0.0017  0.0108  0.0014  0.0522  0.0012  0.0060  0.0013 </r>
        <r>  0.0084  0.0050  0.0068  0.0003  0.0713  0.0010  0.0091  0.0025  0.0188 </r>
        <r>  0.0084  0.0050  0.0068  0.0003  0.0713  0.0010  0.0091  0.0025  0.0188 </r>
        <r>  0.0004  0.0040  0.0017  0.0108  0.0014  0.0522  0.0012  0.0060  0.0013 </r>
        <r>  0.0004  0.0005  0.0497  0.0060  0.0000  0.0000  0.0000  0.0000  0.0000 </r>
        <r>  0.0003  0.0008  0.0444  0.0052  0.0000  0.0000  0.0000  0.0000  0.0000 </r>
        <r>  0.0003  0.0008  0.0444  0.0052  0.0000  0.0000  0.0000  0.0000  0.0000 </r>
        <r>  0.0004  0.0005  0.0497  0.0060  0.0000  0.0000  0.0000  0.0000  0.0000 </r>
       </set>
       <set comment="band 31">
        <r>  0.0004  0.0011  0.0028  0.0004  0.0054  0.0539  0.0296  0.0743  0.0085 </r>
        <r>  0.0026  0.0003  0.0039  0.0041  0.0412  0.0009  0.0570  0.0158  0.0317 </r>
        <r>  0.0026  0.0003  0.0039  0.0041  0.0412  0.0009  0.0570  0.0158  0.0317 </r>
        <r>  0.0004  0.0011  0.0028  0.0004  0.0054  0.0539  0.0296  0.0743  0.0085 </r>
        <r>  0.0001  0.0013  0.0027  0.0048  0.0000  0.0000  0.0000  0.0000  0.0000 </r>
        <r>  0.0000  0.0035  0.0026  0.0006  0.0000  0.0000  0.0000  0.0000  0.0000 </r>
        <r>  0.0000  0.0035  0.0026  0.0006  0.0000  0.0000  0.0000  0.0000  0.0000 </r>
        <r>  0.0001  0.0013  0.0027  0.0048  0.0000  0.0000  0.0000  0.0000  0.0000 </r>
       </set>
       <set comment="band 32">
        <r>  0.0001  0.0014  0.0013  0.0008  0.0009  0.0653  0.0035  0.0996  0.0030 </r>
        <r>  0.0037  0.0006  0.0036  0.0011  0.0445  0.0006  0.0736  0.0141  0.0190 </r>
        <r>  0.0037  0.0006  0.0036  0.0011  0.0445  0.0006  0.0736  0.0141  0.0190 </r>
        <r>  0.0001  0.0014  0.0013  0.0008  0.0009  0.0653  0.0035  0.0996  0.0030 </r>
        <r>  0.0001  0.0021  0.0020  0.0036  0.0000  0.0000  0.0000  0.0000  0.0000 </r>
        <r>  0.0000  0.0030  0.0071  0.0005  0.0000  0.0000  0.0000  0.0000  0.0000 </r>
        <r>  0.0000  0.0030  0.0071  0.0005  0.0000  0.0000  0.0000  0.0000  0.0000 </r>
        <r>  0.0001  0.0021  0.0020  0.0036  0.0000  0.0000  0.0000  0.0000  0.0000 </r>
       </set>
       <set comment="band 33">
        <r>  0.0038  0.0003  0.0031  0.0009  0.0099  0.0040  0.1278  0.0046  0.0568 </r>
        <r>  0.0001  0.0007  0.0001  0.0053  0.0120  0.0060  0.0049  0.0637  0.0144 </r>
        <r>  0.0001  0.0007  0.0001  0.0053  0.0120  0.0060  0.0049  0.0637  0.0144 </r>
        <r>  0.0038  0.0003  0.0031  0.0009  0.0099  0.0040  0.1278  0.0046  0.0568 </r>
        <r>  0.0002  0.0108  0.0007  0.0079  0.0000  0.0000  0.0000  0.0000  0.0000 </r>
        <r>  0.0004  0.0094  0.0003  0.0112  0.0000  0.0000  0.0000  0.0000  0.0000 </r>
        <r>  0.0004  0.0094  0.0003  0.0112  0.0000  0.0000  0.0000  0.0000  0.0000 </r>
        <r>  0.0002  0.0108  0.0007  0.0079  0.0000  0.0000  0.0000  0.0000  0.0000 </r>
       </set>
       <set comment="band 34">
        <r>  0.0028  0.0019  0.0023  0.0006  0.0128  0.0149  0.1061  0.0332  0.0360 </r>
        <r>  0.0013  0.0010  0.0005  0.0044  0.0164  0.0048  0.0192  0.0599  0.0005 </r>
        <r>  0.0013  0.0010  0.0005  0.0044  0.0164  0.0048  0.0192  0.0599  0.0005 </r>
        <r>  0.0028  0.0019  0.0023  0.0006  0.0128  0.0149  0.1061  0.0332  0.0360 </r>
        <r>  0.0004  0.0131  0.0006  0.0065  0.0000  0.0000  0.0000  0.0000  0.0000 </r>
        <r>  0.0004  0.0097  0.0007  0.0122  0.0000  0.0000  0.0000  0.0000  0.0000 </r>
        <r>  0.0004  0.0097  0.0007  0.0122  0.0000  0.0000  0.0000  0.0000  0.0000 </r>
        <r>  0.0004  0.0131  0.0006  0.0065  0.0000  0.0000  0.0000  0.0000  0.0000 </r>
       </set>
       <set comment="band 35">
        <r>  0.0002  0.0013  0.0002  0.0020  0.0277  0.0176  0.0366  0.0595  0.0357 </r>
        <r>  0.0025  0.0005  0.0002  0.0004  0.0034  0.0503  0.0172  0.0569  0.0824 </r>
        <r>  0.0025  0.0005  0.0002  0.0004  0.0034  0.0503  0.0172  0.0569  0.0824 </r>
        <r>  0.0002  0.0013  0.0002  0.0020  0.0277  0.0176  0.0366  0.0595  0.0357 </r>
        <r>  0.0003  0.0010  0.0051  0.0097  0.0000  0.0000  0.0000  0.0000  0.0000 </r>
        <r>  0.0005  0.0005  0.0019  0.0070  0.0000  0.0000  0.0000  0.0000  0.0000 </r>
        <r>  0.0005  0.0005  0.0019  0.0070  0.0000  0.0000  0.0000  0.0000  0.0000 </r>
        <r>  0.0003  0.0010  0.0051  0.0097  0.0000  0.0000  0.0000  0.0000  0.0000 </r>
       </set>
       <set comment="band 36">
        <r>  0.0005  0.0001  0.0003  0.0002  0.0597  0.0205  0.0630  0.0305  0.0489 </r>
        <r>  0.0012  0.0006  0.0003  0.0010  0.0011  0.0665  0.0620  0.0575  0.0121 </r>
        <r>  0.0012  0.0006  0.0003  0.0010  0.0011  0.0665  0.0620  0.0575  0.0121 </r>
        <r>  0.0005  0.0001  0.0003  0.0002  0.0597  0.0205  0.0630  0.0305  0.0489 </r>
        <r>  0.0010  0.0009  0.0005  0.0006  0.0000  0.0000  0.0000  0.0000  0.0000 </r>
        <r>  0.0010  0.0024  0.0048  0.0002  0.0000  0.0000  0.0000  0.0000  0.0000 </r>
        <r>  0.0010  0.0024  0.0048  0.0002  0.0000  0.0000  0.0000  0.0000  0.0000 </r>
        <r>  0.0010  0.0009  0.0005  0.0006  0.0000  0.0000  0.0000  0.0000  0.0000 </r>
       </set>
       <set comment="band 37">
        <r>  0.0029  0.0004  0.0006  0.0012  0.0285  0.0124  0.0467  0.0734  0.0648 </r>
        <r>  0.0021  0.0002  0.0001  0.0014  0.0066  0.0410  0.0507  0.0322  0.0364 </r>
        <r>  0.0021  0.0002  0.0001  0.0014  0.0066  0.0410  0.0507  0.0322  0.0364 </r>
        <r>  0.0029  0.0004  0.0006  0.0012  0.0285  0.0124  0.0467  0.0734  0.0648 </r>
        <r>  0.0000  0.0036  0.0055  0.0086  0.0000  0.0000  0.0000  0.0000  0.0000 </r>
        <r>  0.0007  0.0004  0.0039  0.0044  0.0000  0.0000  0.0000  0.0000  0.0000 </r>
        <r>  0.0007  0.0004  0.0039  0.0044  0.0000  0.0000  0.0000  0.0000  0.0000 </r>
        <r>  0.0000  0.0036  0.0055  0.0086  0.0000  0.0000  0.0000  0.0000  0.0000 </r>
       </set>
       <set comment="band 38">
        <r>  0.0001  0.0019  0.0003  0.0006  0.0185  0.0426  0.0002  0.0089  0.0544 </r>
        <r>  0.0016  0.0004  0.0001  0.0015  0.0139  0.0109  0.0439  0.0090  0.2137 </r>
        <r>  0.0016  0.0004  0.0001  0.0015  0.0139  0.0109  0.0439  0.0090  0.2137 </r>
        <r>  0.0001  0.0019  0.0003  0.0006  0.0185  0.0426  0.0002  0.0089  0.0544 </r>
        <r>  0.0008  0.0004  0.0003  0.0075  0.0000  0.0000  0.0000  0.0000  0.0000 </r>
        <r>  0.0018  0.0004  0.0005  0.0081  0.0000  0.0000  0.0000  0.0000  0.0000 </r>
        <r>  0.0018  0.0004  0.0005  0.0081  0.0000  0.0000  0.0000  0.0000  0.0000 </r>
        <r>  0.0008  0.0004  0.0003  0.0075  0.0000  0.0000  0.0000  0.0000  0.0000 </r>
       </set>
       <set comment="band 39">
        <r>  0.0036  0.0006  0.0002  0.0001  0.0238  0.0028  0.0330  0.0278  0.1790 </r>
        <r>  0.0004  0.0000  0.0004  0.0000  0.0045  0.0079  0.0730  0.0078  0.0538 </r>
        <r>  0.0004  0.0000  0.0004  0.0000  0.0045  0.0079  0.0730  0.0078  0.0538 </r>
        <r>  0.0036  0.0006  0.0002  0.0001  0.0238  0.0028  0.0330  0.0278  0.1790 </r>
        <r>  0.0018  0.0001  0.0029  0.0046  0.0000  0.0000  0.0000  0.0000  0.0000 </r>
        <r>  0.0010  0.0012  0.0093  0.0034  0.0000  0.0000  0.0000  0.0000  0.0000 </r>
        <r>  0.0010  0.0012  0.0093  0.0034  0.0000  0.0000  0.0000  0.0000  0.0000 </r>
        <r>  0.0018  0.0001  0.0029  0.0046  0.0000  0.0000  0.0000  0.0000  0.0000 </r>
       </set>
       <set comment="band 40">
        <r>  0.0009  0.0003  0.0001  0.0001  0.0047  0.0092  0.0209  0.1147  0.1153 </r>
        <r>  0.0008  0.0002  0.0000  0.0000  0.0020  0.0007  0.1362  0.0036  0.0133 </r>
        <r>  0.0008  0.0002  0.0000  0.0000  0.0020  0.0007  0.1362  0.0036  0.0133 </r>
        <r>  0.0009  0.0003  0.0001  0.0001  0.0047  0.0092  0.0209  0.1147  0.1153 </r>
        <r>  0.0013  0.0002  0.0059  0.0028  0.0000  0.0000  0.0000  0.0000  0.0000 </r>
        <r>  0.0007  0.0004  0.0102  0.0017  0.0000  0.0000  0.0000  0.0000  0.0000 </r>
        <r>  0.0007  0.0004  0.0102  0.0017  0.0000  0.0000  0.0000  0.0000  0.0000 </r>
        <r>  0.0013  0.0002  0.0059  0.0028  0.0000  0.0000  0.0000  0.0000  0.0000 </r>
       </set>
       <set comment="band 41">
        <r>  0.0019  0.0003  0.0004  0.0004  0.0192  0.0305  0.0065  0.0513  0.1147 </r>
        <r>  0.0016  0.0003  0.0000  0.0008  0.0035  0.0407  0.0572  0.0479  0.0483 </r>
        <r>  0.0016  0.0003  0.0000  0.0008  0.0035  0.0407  0.0572  0.0479  0.0483 </r>
        <r>  0.0019  0.0003  0.0004  0.0004  0.0192  0.0305  0.0065  0.0513  0.1147 </r>
        <r>  0.0005  0.0002  0.0080  0.0028  0.0000  0.0000  0.0000  0.0000  0.0000 </r>
        <r>  0.0007  0.0005  0.0014  0.0088  0.0000  0.0000  0.0000  0.0000  0.0000 </r>
        <r>  0.0007  0.0005  0.0014  0.0088  0.0000  0.0000  0.0000  0.0000  0.0000 </r>
        <r>  0.0005  0.0002  0.0080  0.0028  0.0000  0.0000  0.0000  0.0000  0.0000 </r>
       </set>
       <set comment="band 42">
        <r>  0.0023  0.0006  0.0004  0.0003  0.0095  0.0342  0.0054  0.0754  0.1291 </r>
        <r>  0.0024  0.0002  0.0002  0.0008  0.0009  0.0518  0.0123  0.0537  0.0409 </r>
        <r>  0.0024  0.0002  0.0002  0.0008  0.0009  0.0518  0.0123  0.0537  0.0409 </r>
        <r>  0.0023  0.0006  0.0004  0.0003  0.0095  0.0342  0.0054  0.0754  0.1291 </r>
        <r>  0.0029  0.0006  0.0042  0.0076  0.0000  0.0000  0.0000  0.0000  0.0000 </r>
        <r>  0.0017  0.0025  0.0033  0.0050  0.0000  0.0000  0.0000  0.0000  0.0000 </r>
        <r>  0.0017  0.0025  0.0033  0.0050  0.0000  0.0000  0.0000  0.0000  0.0000 </r>
        <r>  0.0029  0.0006  0.0042  0.0076  0.0000  0.0000  0.0000  0.0000  0.0000 </r>
       </set>
       <set comment="band 43">
        <r>  0.0012  0.0003  0.0003  0.0008  0.1447  0.0501  0.0423  0.0177  0.0018 </r>
        <r>  0.0028  0.0005  0.0015  0.0017  0.0342  0.0127  0.0251  0.0033  0.0512 </r>
        <r>  0.0028  0.0005  0.0015  0.0017  0.0342  0.0127  0.0251  0.0033  0.0512 </r>
        <r>  0.0012  0.0003  0.0003  0.0008  0.1447  0.0501  0.0423  0.0177  0.0018 </r>
        <r>  0.0176  0.0072  0.0074  0.0022  0.0000  0.0000  0.0000  0.0000  0.0000 </r>
        <r>  0.0151  0.0042  0.0013  0.0023  0.0000  0.0000  0.0000  0.0000  0.0000 </r>
        <r>  0.0151  0.0042  0.0013  0.0023  0.0000  0.0000  0.0000  0.0000  0.0000 </r>
        <r>  0.0176  0.0072  0.0074  0.0022  0.0000  0.0000  0.0000  0.0000  0.0000 </r>
       </set>
       <set comment="band 44">
        <r>  0.0009  0.0001  0.0005  0.0023  0.2243  0.0113  0.0627  0.0021  0.0036 </r>
        <r>  0.0013  0.0003  0.0013  0.0017  0.0199  0.0142  0.0016  0.0179  0.0287 </r>
        <r>  0.0013  0.0003  0.0013  0.0017  0.0199  0.0142  0.0016  0.0179  0.0287 </r>
        <r>  0.0009  0.0001  0.0005  0.0023  0.2243  0.0113  0.0627  0.0021  0.0036 </r>
        <r>  0.0131  0.0059  0.0037  0.0025  0.0000  0.0000  0.0000  0.0000  0.0000 </r>
        <r>  0.0107  0.0125  0.0069  0.0010  0.0000  0.0000  0.0000  0.0000  0.0000 </r>
        <r>  0.0107  0.0125  0.0069  0.0010  0.0000  0.0000  0.0000  0.0000  0.0000 </r>
        <r>  0.0131  0.0059  0.0037  0.0025  0.0000  0.0000  0.0000  0.0000  0.0000 </r>
       </set>
       <set comment="band 45">
        <r>  0.0000  0.0003  0.0001  0.0001  0.0013  0.1571  0.0043  0.0229  0.0007 </r>
        <r>  0.0006  0.0001  0.0042  0.0000  0.0652  0.0007  0.0483  0.0064  0.1030 </r>
        <r>  0.0006  0.0001  0.0042  0.0000  0.0652  0.0007  0.0483  0.0064  0.1030 </r>
        <r>  0.0000  0.0003  0.0001  0.0001  0.0013  0.1571  0.0043  0.0229  0.0007 </r>
        <r>  0.0077  0.0027  0.0044  0.0071  0.0000  0.0000  0.0000  0.0000  0.0000 </r>
        <r>  0.0086  0.0013  0.0031  0.0085  0.0000  0.0000  0.0000  0.0000  0.0000 </r>
        <r>  0.0086  0.0013  0.0031  0.0085  0.0000  0.0000  0.0000  0.0000  0.0000 </r>
        <r>  0.0077  0.0027  0.0044  0.0071  0.0000  0.0000  0.0000  0.0000  0.0000 </r>
       </set>
       <set comment="band 46">
        <r>  0.0010  0.0001  0.0005  0.0014  0.1148  0.0856  0.0710  0.0109  0.0013 </r>
        <r>  0.0002  0.0001  0.0022  0.0021  0.0190  0.0062  0.0257  0.0289  0.0413 </r>
        <r>  0.0002  0.0001  0.0022  0.0021  0.0190  0.0062  0.0257  0.0289  0.0413 </r>
        <r>  0.0010  0.0001  0.0005  0.0014  0.1148  0.0856  0.0710  0.0109  0.0013 </r>
        <r>  0.0024  0.0085  0.0031  0.0037  0.0000  0.0000  0.0000  0.0000  0.0000 </r>
        <r>  0.0057  0.0054  0.0092  0.0082  0.0000  0.0000  0.0000  0.0000  0.0000 </r>
        <r>  0.0057  0.0054  0.0092  0.0082  0.0000  0.0000  0.0000  0.0000  0.0000 </r>
        <r>  0.0024  0.0085  0.0031  0.0037  0.0000  0.0000  0.0000  0.0000  0.0000 </r>
       </set>
       <set comment="band 47">
        <r>  0.0101  0.0025  0.0011  0.0066  0.0149  0.0274  0.0282  0.0020  0.0004 </r>
        <r>  0.0040  0.0012  0.0028  0.0022  0.0893  0.0875  0.0308  0.0223  0.0074 </r>
        <r>  0.0040  0.0012  0.0028  0.0022  0.0893  0.0875  0.0308  0.0223  0.0074 </r>
        <r>  0.0101  0.0025  0.0011  0.0066  0.0149  0.0274  0.0282  0.0020  0.0004 </r>
        <r>  0.0100  0.0009  0.0269  0.0093  0.0000  0.0000  0.0000  0.0000  0.0000 </r>
        <r>  0.0034  0.0083  0.0083  0.0085  0.0000  0.0000  0.0000  0.0000  0.0000 </r>
        <r>  0.0034  0.0083  0.0083  0.0085  0.0000  0.0000  0.0000  0.0000  0.0000 </r>
        <r>  0.0100  0.0009  0.0269  0.0093  0.0000  0.0000  0.0000  0.0000  0.0000 </r>
       </set>
       <set comment="band 48">
        <r>  0.0061  0.0007  0.0028  0.0013  0.0058  0.0126  0.0513  0.0014  0.0009 </r>
        <r>  0.0058  0.0001  0.0025  0.0029  0.0678  0.1332  0.0251  0.0303  0.0020 </r>
        <r>  0.0058  0.0001  0.0025  0.0029  0.0678  0.1332  0.0251  0.0303  0.0020 </r>
        <r>  0.0061  0.0007  0.0028  0.0013  0.0058  0.0126  0.0513  0.0014  0.0009 </r>
        <r>  0.0001  0.0052  0.0066  0.0141  0.0000  0.0000  0.0000  0.0000  0.0000 </r>
        <r>  0.0065  0.0031  0.0225  0.0207  0.0000  0.0000  0.0000  0.0000  0.0000 </r>
        <r>  0.0065  0.0031  0.0225  0.0207  0.0000  0.0000  0.0000  0.0000  0.0000 </r>
        <r>  0.0001  0.0052  0.0066  0.0141  0.0000  0.0000  0.0000  0.0000  0.0000 </r>
       </set>
      </set>
     </set>
    </set>
   </array>
  </projected>
 </calculation>
 <structure name="finalpos" >
  <crystal>
   <varray name="basis" >
    <v>       3.47864100       0.00000000       0.00000000 </v>
    <v>       0.00000000       4.68256500       0.00000000 </v>
    <v>       0.00000000       0.00000000       6.17670100 </v>
   </varray>
   <i name="volume">    100.61205154 </i>
   <varray name="rec_basis" >
    <v>       0.28746858       0.00000000       0.00000000 </v>
    <v>       0.00000000       0.21355817       0.00000000 </v>
    <v>       0.00000000       0.00000000       0.16189872 </v>
   </varray>
  </crystal>
  <varray name="positions" >
   <v>       0.00000000       0.50000000       0.60651900 </v>
   <v>       0.00000000       0.00000000       0.95808100 </v>
   <v>       0.50000000       0.50000000       0.04191900 </v>
   <v>       0.50000000       0.00000000       0.39348100 </v>
   <v>       0.50000000       0.83775000       0.74446900 </v>
   <v>       0.50000000       0.16225000       0.74446900 </v>
   <v>       0.00000000       0.33775000       0.25553100 </v>
   <v>       0.00000000       0.66225000       0.25553100 </v>
  </varray>
 </structure>
</modeling>
